IDENTIFIER: Reference ID,FORMULA,PROPERTY: Microstructure,PROPERTY: Processing method,PROPERTY: BCC/FCC/other,PROPERTY: grain size ($\mu$m),PROPERTY: Exp. Density (g/cm$^3$),PROPERTY: Calculated Density (g/cm$^3$),PROPERTY: HV,PROPERTY: Type of test,PROPERTY: Test temperature ($^\circ$C),PROPERTY: YS (MPa),PROPERTY: UTS (MPa),PROPERTY: Elongation (%),PROPERTY: Elongation plastic (%),PROPERTY: Exp. Young modulus (GPa),PROPERTY: Calculated Young modulus (GPa),PROPERTY: O content (wppm),PROPERTY: N content (wppm),PROPERTY: C content (wppm)
39,Al0.333 Nb0.667 Ta0.533 Ti1 V0.133 Zr0.667,BCC,OTHER,BCC,,,7.6,,C,1000,220,225,50,,,109,,,
39,Al1 Mo0.5 Nb1 Ta0.5 Ti1 Zr1,BCC+B2,OTHER,other,75,,7.1,591,C,25,2000,2368,10,,,,,,
39,Al1 Mo0.5 Nb1 Ta0.5 Ti1 Zr1,BCC+B2,OTHER,other,,,7.1,,C,800,1597,1810,11,,,,,,
39,Al1 Mo0.5 Nb1 Ta0.5 Ti1 Zr1,BCC+B2,OTHER,other,,,7.1,,C,1000,745,772,50,,,,,,
39,Al1 Mo0.5 Nb1 Ta0.5 Ti1 Zr1,BCC+B2,OTHER,other,,,7.1,,C,1200,250,,50,,,,,,
39,Al0.667 Nb1 Ta0.333 Ti1 Zr0.333,BCC,OTHER,BCC,2000,,6.8,408,C,25,1280,1367,4,,,105,,,
39,Al0.667 Nb1 Ta0.333 Ti1 Zr0.333,BCC,OTHER,BCC,,,6.8,,C,800,728,1000,12,,,105,,,
39,Al0.667 Nb1 Ta0.333 Ti1 Zr0.333,BCC,OTHER,BCC,,,6.8,,C,1000,403,415,50,,,105,,,
40,Al0.3 Hf1 Nb1 Ta1 Ti1 Zr1,BCC,CAST,BCC,105,,9.5,353,C,25,1188,,50,,63,105,,,
40,Al0.5 Hf1 Nb1 Ta1 Ti1 Zr1,BCC,CAST,BCC,86,,9.3,396,C,25,1302,,46,,97,104,,,
40,Al0.75 Hf1 Nb1 Ta1 Ti1 Zr1,BCC,CAST,BCC,89,,9.1,427,C,25,1415,2050,30,,102,103,,,
40,Al1 Hf1 Nb1 Ta1 Ti1 Zr1,BCC+Sec.,CAST,other,92,,8.9,441,C,25,1489,1900,21,,103,,,,
40,Hf1 Nb1 Ta1 Ti1 Zr1,BCC,CAST,BCC,120,,9.9,295,C,25,1073,,50,,55,107,,,
41,Al0.25 Mo1 Nb1 Ti1 V1,BCC,CAST,BCC,,,7.1,460,C,25,1250,1500,13,,,161,,,
41,Al0.5 Mo1 Nb1 Ti1 V1,BCC,CAST,BCC,,,6.8,487,C,25,1625,1800,11,,,156,,,
41,Al0.75 Mo1 Nb1 Ti1 V1,BCC,CAST,BCC,,,6.6,517,C,25,1260,1300,8,,,151,,,
41,Al1 Mo1 Nb1 Ti1 V1,BCC,CAST,BCC,,,6.4,537,C,25,1375,1400,3,,,147,,,
41,Mo1 Nb1 Ti1 V1,BCC,CAST,BCC,,,7.3,441,C,25,1200,2050,26,,,167,,,
42,Al0.25 Nb1 Ta1 Ti1 V1,BCC,CAST,BCC,,,8.8,,C,25,1330,,,,,130,,,
42,Al0.5 Nb1 Ta1 Ti1 V1,BCC,CAST,BCC,,,8.5,,C,25,1014,,,,,127,,,
42,Al1 Nb1 Ta1 Ti1 V1,BCC,CAST,BCC,,,7.9,,C,25,993,,,,,122,,,
42,Nb1 Ta1 Ti1 V1,BCC,CAST,BCC,,,9.2,,C,25,1092,,,,,134,,,
43,Al1 Nb1 Ti1 V1,BCC,ANNEAL,BCC,350,,5.5,448,C,25,1020,1318,,5,,104,,,
43,Al1 Nb1 Ti1 V1,BCC,ANNEAL,BCC,,,5.5,,C,600,810,1050,,12,,104,,,
43,Al1 Nb1 Ti1 V1,BCC,ANNEAL,BCC,,,5.5,,C,800,685,,,50,,104,,,
43,Al1 Nb1 Ti1 V1,BCC,ANNEAL,BCC,,,5.5,,C,1000,158,,,50,,104,,,
44,Cr1 Mo0.5 Nb1 Ta0.5 Ti1 Zr1,BCC+BCC+Sec.,OTHER,other,,,8,540,C,25,1595,2046,5,,,,,,
44,Cr1 Mo0.5 Nb1 Ta0.5 Ti1 Zr1,BCC+BCC+Sec.,OTHER,other,,,8,,C,800,983,1100,5.5,,,,,,
44,Cr1 Mo0.5 Nb1 Ta0.5 Ti1 Zr1,BCC+BCC+Sec.,OTHER,other,,,8,,C,1000,546,630,50,,,,,,
44,Cr1 Mo0.5 Nb1 Ta0.5 Ti1 Zr1,BCC+BCC+Sec.,OTHER,other,,,8,,C,1200,170,190,50,,,,,,
45,Cr1 Nb1 Ti1 V1 Zr1,BCC+Sec.,OTHER,other,,,6.6,482,C,25,1298,,3,,,,,,
45,Cr1 Nb1 Ti1 V1 Zr1,BCC+Sec.,OTHER,other,,,6.6,,C,600,1230,,10,,,,,,
45,Cr1 Nb1 Ti1 V1 Zr1,BCC+Sec.,OTHER,other,,,6.6,,C,800,615,,50,,,,,,
45,Cr1 Nb1 Ti1 V1 Zr1,BCC+Sec.,OTHER,other,,,6.6,,C,1000,259,,50,,,,,,
45,Cr1 Nb1 Ti1 Zr1,BCC+Sec.,OTHER,other,,,6.6,418,C,25,1260,,6,,,,,,
45,Cr1 Nb1 Ti1 Zr1,BCC+Sec.,OTHER,other,,,6.6,,C,600,1035,,50,,,,,,
45,Cr1 Nb1 Ti1 Zr1,BCC+Sec.,OTHER,other,,,6.6,,C,800,300,,50,,,,,,
45,Cr1 Nb1 Ti1 Zr1,BCC+Sec.,OTHER,other,,,6.6,,C,1000,115,,50,,,,,,
45,Nb0.5 Ti0.5 V1 Zr0.5,BCC,OTHER,BCC,550,,6.4,304,C,25,918,,50,,,105,,,
45,Nb0.5 Ti0.5 V1 Zr0.5,BCC,OTHER,BCC,,,6.4,,C,600,571,,50,,,105,,,
45,Nb0.5 Ti0.5 V1 Zr0.5,BCC,OTHER,BCC,,,6.4,,C,800,240,,50,,,105,,,
45,Nb0.5 Ti0.5 V1 Zr0.5,BCC,OTHER,BCC,,,6.4,,C,1000,72,,50,,,105,,,
45,Nb1 Ti1 V1 Zr1,BCC,OTHER,BCC,550,,6.5,335,C,25,1105,,50,,,100,,,
45,Nb1 Ti1 V1 Zr1,BCC,OTHER,BCC,,,6.5,,C,600,834,,50,,,100,,,
45,Nb1 Ti1 V1 Zr1,BCC,OTHER,BCC,,,6.5,,C,800,187,,50,,,100,,,
45,Nb1 Ti1 V1 Zr1,BCC,OTHER,BCC,,,6.5,,C,1000,58,,50,,,100,,,
47,Hf0.5 Mo0.5 Nb1 Ti1 Zr1,BCC,CAST,BCC,,,7.9,,C,25,1176,1538,,,,115,,,
47,C0.1 Hf0.5 Mo0.5 Nb1 Ti1 Zr1,BCC+Sec.,CAST,other,,,7.8,,C,25,1183,2139,38,,,,,,
47,C0.3 Hf0.5 Mo0.5 Nb1 Ti1 Zr1,BCC+Sec.,CAST,other,,,7.7,,C,25,1201,1965,33,,,,,,
48,Hf1 Mo0.25 Nb1 Ta1 Ti1 Zr1,BCC,CAST,BCC,,,9.9,395,C,25,1112,,50,,96,115,,,
48,Hf1 Mo0.5 Nb1 Ta1 Ti1 Zr1,BCC,CAST,BCC,,,9.9,480,C,25,1317,,50,,102,123,,,
48,Hf1 Mo0.75 Nb1 Ta1 Ti1 Zr1,BCC,CAST,BCC,,,9.9,492,C,25,1373,,50,,109,130,,,
48,Hf1 Mo1 Nb1 Ta1 Ti1 Zr1,BCC,CAST,BCC,,,9.9,505,C,25,1512,1800,12,,115,137,,,
48,Hf1 Nb1 Ta1 Ti1 Zr1,BCC,CAST,BCC,,,9.9,335,C,25,1015,,50,,85,107,,,
49,Hf1 Mo1 Nb1 Ta1 Ti1 Zr1,BCC,CAST,BCC,,,9.9,505,C,25,1512,,12,,,137,,,
49,Hf1 Mo1 Nb1 Ta1 Ti1 Zr1,BCC,CAST,BCC,,,9.9,,C,800,1007,,23,,,137,,,
49,Hf1 Mo1 Nb1 Ta1 Ti1 Zr1,BCC,CAST,BCC,,,9.9,,C,1000,814,,30,,,137,,,
49,Hf1 Mo1 Nb1 Ta1 Ti1 Zr1,BCC,CAST,BCC,,,9.9,,C,1200,556,,30,,,137,,,
49,Hf1 Mo1 Ta1 Ti1 Zr1,BCC,CAST,BCC,,,10.2,542,C,25,1600,1743,4,,,143,,,
49,Hf1 Mo1 Ta1 Ti1 Zr1,BCC,CAST,BCC,,,10.2,,C,800,1045,1446,19,,,143,,,
49,Hf1 Mo1 Ta1 Ti1 Zr1,BCC,CAST,BCC,,,10.2,,C,1000,855,,30,,,143,,,
49,Hf1 Mo1 Ta1 Ti1 Zr1,BCC,CAST,BCC,,,10.2,,C,1200,404,,30,,,143,,,
50,Hf1 Mo1 Nb1 Ti1 Zr1,BCC,ANNEAL,BCC,,,8.7,,C,25,1575,1640,9,,,128,,,
50,Hf1 Mo1 Nb1 Ti1 Zr1,BCC,ANNEAL,BCC,,,8.7,,C,800,825,1095,50,,,128,,,
50,Hf1 Mo1 Nb1 Ti1 Zr1,BCC,ANNEAL,BCC,,,8.7,,C,1000,635,654,50,,,128,,,
50,Hf1 Mo1 Nb1 Ti1 Zr1,BCC,ANNEAL,BCC,,,8.7,,C,1200,187,194,50,,,128,,,
50,Hf1 Mo1 Nb1 Ti1 Zr1,BCC,CAST,BCC,,,8.7,,C,25,1719,1803,10,,,128,,,
51,Hf1 Nb1 Si0.5 Ti1 V1,BCC+Sec.,CAST,other,,,7.8,,C,800,875,,50,,,,,,
51,Hf1 Nb1 Si0.5 Ti1 V1,BCC+Sec.,CAST,other,,,7.8,,C,1000,240,,50,,,,,,
51,Hf1 Nb1 Si0.5 Ti1 V1,BCC+Sec.,CAST,other,,,7.8,490,C,25,1399,1608,11,,,,,,
52,Hf0.333 Nb0.333 Ta0.333 Ti1 Zr0.667,BCC,CAST,BCC,,,8.2,301,T,25,903,990,19,,,103,,,
53,Hf1 Nb1 Ta1 Ti1 Zr1,BCC,OTHER,BCC,,,9.9,,C,25,929,,50,,,107,,,
53,Hf1 Nb1 Ta1 Ti1 Zr1,BCC,OTHER,BCC,,,9.9,,C,400,790,,50,,,107,,,
53,Hf1 Nb1 Ta1 Ti1 Zr1,BCC,OTHER,BCC,,,9.9,,C,600,675,,50,,,107,,,
53,Hf1 Nb1 Ta1 Ti1 Zr1,BCC,OTHER,BCC,,,9.9,,C,800,535,,50,,,107,,,
53,Hf1 Nb1 Ta1 Ti1 Zr1,BCC,OTHER,BCC,,,9.9,,C,1000,295,,50,,,107,,,
53,Hf1 Nb1 Ta1 Ti1 Zr1,BCC,OTHER,BCC,,,9.9,,C,1200,92,,50,,,107,,,
55,Hf1 Nb1 Ti1 Zr1,BCC,CAST,BCC,,,8.4,,T,25,879,969,,14.9,,89,,,
56,Mo1 Nb1 Ta1 V1,BCC,ANNEAL,BCC,200,,10.7,504,C,25,1525,2400,21,,,186,,,
57,Mo1 Nb1 Ta1 V1 W1,BCC,CAST,BCC,80,,12.4,536,C,25,1246,1270,2,,,229,,,
57,Mo1 Nb1 Ta1 V1 W1,BCC,CAST,BCC,,,12.4,,C,600,862,,13,,,229,,,
57,Mo1 Nb1 Ta1 V1 W1,BCC,CAST,BCC,,,12.4,,C,800,846,,17,,,229,,,
57,Mo1 Nb1 Ta1 V1 W1,BCC,CAST,BCC,,,12.4,,C,1000,842,,19,,,229,,,
57,Mo1 Nb1 Ta1 V1 W1,BCC,CAST,BCC,,,12.4,,C,1200,735,,7.5,,,229,,,
57,Mo1 Nb1 Ta1 V1 W1,BCC,CAST,BCC,,,12.4,,C,1400,656,,40,,,229,,,
57,Mo1 Nb1 Ta1 V1 W1,BCC,CAST,BCC,,,12.4,,C,1600,477,,40,,,229,,,
57,Mo1 Nb1 Ta1 W1,BCC,CAST,BCC,200,,13.7,454,C,25,1058,1211,2,,,250,,,
57,Mo1 Nb1 Ta1 W1,BCC,CAST,BCC,,,13.7,,C,600,561,,40,,,250,,,
57,Mo1 Nb1 Ta1 W1,BCC,CAST,BCC,,,13.7,,C,800,552,,40,,,250,,,
57,Mo1 Nb1 Ta1 W1,BCC,CAST,BCC,,,13.7,,C,1000,548,,40,,,250,,,
57,Mo1 Nb1 Ta1 W1,BCC,CAST,BCC,,,13.7,,C,1200,506,,40,,,250,,,
57,Mo1 Nb1 Ta1 W1,BCC,CAST,BCC,,,13.7,,C,1400,421,,40,,,250,,,
57,Mo1 Nb1 Ta1 W1,BCC,CAST,BCC,,,13.7,,C,1600,405,,40,,,250,,,
58,Mo0.3 Nb1 Ti1 V1 Zr1,BCC,ANNEAL,BCC,,,6.7,,C,25,1289,,,42,,114,,,
58,Mo0.5 Nb1 Ti1 V1 Zr1,BCC,ANNEAL,BCC,,,6.8,,C,25,1473,,,32,,122,,,
58,Mo0.7 Nb1 Ti1 V1 Zr1,BCC,ANNEAL,BCC,,,6.9,,C,25,1706,,,32,,130,,,
58,Mo1 Nb0.769 Ti0.769 V0.769 Zr0.769,BCC,ANNEAL,BCC,,,7.3,,C,25,1496,,,30,,150,,,
58,Mo1 Nb0.667 Ti0.667 V0.667 Zr0.667,BCC,ANNEAL,BCC,,,7.4,,C,25,1603,,,20,,156,,,
58,Mo1 Nb0.588 Ti0.588 V0.588 Zr0.588,BCC,ANNEAL,BCC,,,7.5,,C,25,1645,,,15,,161,,,
58,Mo1 Nb0.5 Ti0.5 V0.5 Zr0.5,BCC,ANNEAL,BCC,,,7.6,,C,25,1765,,,12,,169,,,
58,Mo1 Nb1 Ti1 V1 Zr1,BCC,ANNEAL,BCC,,,7.1,,C,25,1779,,,32,,141,,,
58,Mo1 Nb1 Ti1 V0.3 Zr1,BCC,ANNEAL,BCC,,,7.2,,C,25,1455,,,25,,142,,,
58,Mo0.1 Nb1 Ti1 V0.3 Zr1,BCC,ANNEAL,BCC,,,6.6,,C,25,932,,,45,,102,,,
58,Mo0.3 Nb1 Ti1 V0.3 Zr1,BCC,ANNEAL,BCC,,,6.8,,C,25,1312,,,50,,112,,,
58,Mo0.5 Nb1 Ti1 V0.3 Zr1,BCC,ANNEAL,BCC,,,6.9,,C,25,1301,,,43,,122,,,
58,Mo0.7 Nb1 Ti1 V0.3 Zr1,BCC,ANNEAL,BCC,,,7.1,,C,25,1436,,,27,,130,,,
58,Mo1 Nb0.769 Ti0.769 V0.231 Zr0.769,BCC,ANNEAL,BCC,,,7.4,,C,25,1603,,,20,,153,,,
58,Mo1 Nb0.667 Ti0.667 V0.2 Zr0.667,BCC,ANNEAL,BCC,,,7.5,,C,25,1576,,,8,,159,,,
58,Nb1 Ti1 V0.3 Zr1,BCC,ANNEAL,BCC,,,6.5,,C,25,866,,,45,,96,,,
58,Nb1 Ti1 V1 Zr1,BCC,ANNEAL,BCC,,,6.5,,C,25,1104,,,50,,100,,,
59,Mo1 Nb1 Ti1 V0.25 Zr1,BCC,CAST,BCC,,,7.3,,C,25,1776,3893,30,,,142,,,
59,Mo1 Nb1 Ti1 V0.5 Zr1,BCC,CAST,BCC,,,7.2,,C,25,1647,3307,28,,,142,,,
59,Mo1 Nb1 Ti1 V0.75 Zr1,BCC,CAST,BCC,,,7.2,,C,25,1708,3929,29,,,141,,,
59,Mo1 Nb1 Ti1 V1 Zr1,BCC,CAST,BCC,,,7.1,,C,25,1786,3828,26,,,141,,,
59,Mo0.667 Nb0.667 Ti0.667 V1 Zr0.667,BCC,CAST,BCC,,,7.1,,C,25,1735,3300,20,,,140,,,
59,Mo0.5 Nb0.5 Ti0.5 V1 Zr0.5,BCC,CAST,BCC,,,7,,C,25,1538,3176,23,,,139,,,
59,Mo0.333 Nb0.333 Ti0.333 V1 Zr0.333,BCC,CAST,BCC,,,6.9,,C,25,1418,2508,24,,,138,,,
59,Mo1 Nb1 Ti1 Zr1,BCC,CAST,BCC,,,7.3,,C,25,1592,3450,34,,,143,,,
60,Co1 Fe1 Mo0.2 Ni1 V1,FCC+Sec.,CAST,other,,,8,267,,25,,,,,,,,,
60,Co1 Fe1 Mo0.4 Ni1 V1,FCC+Sec.,CAST,other,,,8.1,402,,25,,,,,,,,,
60,Co1 Fe1 Mo0.6 Ni1 V1,FCC+Sec.,CAST,other,,,8.2,557,,25,,,,,,,,,
60,Co1 Fe1 Mo0.8 Ni1 V1,FCC+Sec.,CAST,other,,,8.3,606,,25,,,,,,,,,
60,Co0.833 Fe0.833 Mo0.833 Ni1 V0.833,FCC+Sec.,CAST,other,,,8.4,602,,25,,,,,,,,,
60,Co0.714 Fe0.714 Mo0.714 Ni1 V0.714,FCC+Sec.,CAST,other,,,8.5,538,,25,,,,,,,,,
60,Co0.625 Fe0.625 Mo0.625 Ni1 V0.625,FCC+Sec.,CAST,other,,,8.5,520,,25,,,,,,,,,
60,Co0.556 Fe0.556 Mo0.556 Ni1 V0.556,FCC+Sec.,CAST,other,,,8.5,510,,25,,,,,,,,,
60,Co0.5 Fe0.5 Mo0.5 Ni1 V0.5,FCC+Sec.,CAST,other,,,8.5,382,,25,,,,,,,,,
60,Co1 Fe1 Mo1 Ni1 V1,FCC+Sec.,CAST,other,,,8.4,625,,25,,,,,,,,,
60,Co1 Fe1 Ni1 V1,FCC,CAST,FCC,,,7.8,238,,25,,,,,,184,,,
61,Al0.125 Co1 Cr1 Cu1 Fe1 Mn1 Ni1 Ti1 V1,FCC+BCC,CAST,other,,,7.2,,C,25,1862,2431,1,,164,,,,
61,Al0.25 Co1 Cr1 Cu1 Fe1 Mn1 Ni1 Ti1 V1,BCC,CAST,BCC,,,7.1,,C,25,1465,2016,2,,190,174,,,
61,Al0.667 Co1 Cr1 Cu1 Fe1 Mn1 Ni1 Ti1 V1,BCC+Sec.,CAST,other,,,6.8,,C,25,1461,1461,1,,163,,,,
61,Co1 Cr1 Cu1 Fe1 Mn1 Ni1 Ti1 V1,FCC+BCC+Sec.,CAST,other,,,7.3,,C,25,1312,1312,1,,74,,,,
62,Cu1 Mn1 Ni1 Zn0.333,FCC,CAST,FCC,,,8.3,147,C,25,215,,60,,,167,,,
62,Cu1 Mn1 Ni1 Zn0.25,FCC,CAST,FCC,,,8.3,109,C,25,140,,65,,,169,,,
62,Al0.111 Cu1 Mn1 Ni1,FCC+Sec.,CAST,other,,,8.1,241,C,25,515,,40,,,,,,
62,Cu1 Mn1 Ni1 Sn0.111,FCC+Sec.,CAST,other,,,8.3,318,C,25,630,,20,,,,,,
62,Al0.053 Cu1 Mn1 Ni1,FCC,CAST,FCC,,,8.3,166,C,25,330,,45,,,173,,,
62,Cu1 Mn1 Ni1 Sn0.053,FCC+Sec.,CAST,other,,,8.4,205,C,25,380,,63,,,,,,
64,Al0.5 Co1 Cr1 Cu1 Fe1 Ni1,FCC,CAST,FCC,,,7.6,,C,1000,150,,,,,189,,,
64,Al0.5 Co1 Cr1 Cu1 Fe1 Ni1,FCC,CAST,FCC,,,7.6,,C,25,388,,,,,189,,,
64,Al0.5 Co1 Cr1 Cu1 Fe1 Ni1,FCC,CAST,FCC,,,7.6,,C,300,411,,,,,189,,,
64,Al0.5 Co1 Cr1 Cu1 Fe1 Ni1,FCC,CAST,FCC,,,7.6,,C,500,421,,,,,189,,,
64,Al0.5 Co1 Cr1 Cu1 Fe1 Ni1,FCC,CAST,FCC,,,7.6,,C,700,426,,,,,189,,,
64,Al0.5 Co1 Cr1 Cu1 Fe1 Ni1,FCC,CAST,FCC,,,7.6,,C,900,230,,,,,189,,,
64,Al0.5 Co1 Cr1 Cu1 Fe1 Ni1,FCC,CAST,FCC,,,7.6,,C,1100,80,,,,,189,,,
64,Al1 Co0.5 Cr0.5 Cu0.5 Fe0.5 Ni0.5,BCC,CAST,BCC,,,6.3,,C,1000,116,,,,,156,,,
64,Al1 Co0.5 Cr0.5 Cu0.5 Fe0.5 Ni0.5,BCC,CAST,BCC,,,6.3,,C,1100,79,,,,,156,,,
64,Al1 Co0.5 Cr0.5 Cu0.5 Fe0.5 Ni0.5,BCC,CAST,BCC,,,6.3,,C,25,1620,,,,,156,,,
64,Al1 Co0.5 Cr0.5 Cu0.5 Fe0.5 Ni0.5,BCC,CAST,BCC,,,6.3,,C,600,805,,,,,156,,,
64,Al1 Co0.5 Cr0.5 Cu0.5 Fe0.5 Ni0.5,BCC,CAST,BCC,,,6.3,,C,500,1120,,,,,156,,,
64,Al1 Co0.5 Cr0.5 Cu0.5 Fe0.5 Ni0.5,BCC,CAST,BCC,,,6.3,,C,700,567,,,,,156,,,
64,Al1 Co0.5 Cr0.5 Cu0.5 Fe0.5 Ni0.5,BCC,CAST,BCC,,,6.3,,C,900,214,,,,,156,,,
64,Al1 Co0.5 Cr0.5 Cu0.5 Fe0.5 Ni0.5,BCC,CAST,BCC,,,6.3,,C,800,302,,,,,156,,,
64,Al1 Co1 Cr1 Cu1 Fe1 Ni1,FCC+BCC,CAST,other,,,7.1,,C,1000,47,,,,,,,,
64,Al1 Co1 Cr1 Cu1 Fe1 Ni1,FCC+BCC,CAST,other,,,7.1,,C,25,948,,,,,,,,
64,Al1 Co1 Cr1 Cu1 Fe1 Ni1,FCC+BCC,CAST,other,,,7.1,,C,600,561,,,,,,,,
64,Al1 Co1 Cr1 Cu1 Fe1 Ni1,FCC+BCC,CAST,other,,,7.1,,C,700,307,,,,,,,,
64,Al1 Co1 Cr1 Cu1 Fe1 Ni1,FCC+BCC,CAST,other,,,7.1,,C,800,172,,,,,,,,
64,Al1 Co1 Cr1 Cu1 Fe1 Ni1,FCC+BCC,CAST,other,,,7.1,,C,900,98,,,,,,,,
65,Al1 Cr1 Mo1 Nb1 Ti1,BCC,CAST,BCC,,,6.6,,C,25,,,,,,170,92,,
65,Al1 Cr1 Mo1 Nb1 Ti1,BCC,CAST,BCC,,,6.6,,C,400,1080,1100,2,,,170,92,,
65,Al1 Cr1 Mo1 Nb1 Ti1,BCC,CAST,BCC,,,6.6,,C,600,1060,1170,3,,,170,92,,
65,Al1 Cr1 Mo1 Nb1 Ti1,BCC,CAST,BCC,,,6.6,,C,800,860,1000,2,,,170,92,,
65,Al1 Cr1 Mo1 Nb1 Ti1,BCC,CAST,BCC,,,6.6,,C,1000,594,630,15,,,170,92,,
65,Al1 Cr1 Mo1 Nb1 Ti1,BCC,CAST,BCC,,,6.6,,C,1200,105,116,24,,,170,92,,
67,Al1 Cr1 Mo1 Nb1 Ti1,BCC,ANNEAL,BCC,,,6.6,,C,600,930,,,,,170,92,,
67,Al1 Cr1 Mo1 Nb1 Ti1,BCC,ANNEAL,BCC,,,6.6,,C,800,875,,,,,170,,,
67,Al1 Cr1 Mo1 Nb1 Ti1,BCC,ANNEAL,BCC,,,6.6,,C,1000,550,,,,,170,,,
67,Al1 Cr1 Mo1 Nb1 Ti1,BCC,ANNEAL,BCC,,,6.6,,C,1200,150,,,,,170,,,
67,Al1 Cr1 Mo1 Ti1,BCC,ANNEAL,BCC,,,6,,C,400,1070,,,,,189,,,
67,Al1 Cr1 Mo1 Ti1,BCC,ANNEAL,BCC,,,6,,C,600,1020,,,,,189,,,
67,Al1 Cr1 Mo1 Ti1,BCC,ANNEAL,BCC,,,6,,C,800,875,,,,,189,,,
67,Al1 Cr1 Mo1 Ti1,BCC,ANNEAL,BCC,,,6,,C,1000,375,,,,,189,,,
67,Al1 Cr1 Mo1 Ti1,BCC,ANNEAL,BCC,,,6,,C,1200,100,,,,,189,,,
67,Al1 Mo1 Nb1 Ti1,BCC,ANNEAL,BCC,,,6.5,,C,600,520,,,,,151,,,
67,Al1 Mo1 Nb1 Ti1,BCC,ANNEAL,BCC,,,6.5,,C,800,500,,,,,151,,,
67,Al1 Mo1 Nb1 Ti1,BCC,ANNEAL,BCC,,,6.5,,C,1000,540,,,,,151,,,
67,Al1 Mo1 Nb1 Ti1,BCC,ANNEAL,BCC,,,6.5,,C,1200,200,,,,,151,,,
68,Al1 Nb1 Ti1 V1,B2,ANNEAL,other,,,5.5,,C,600,780,1005,,,,,,,
68,Al1 Nb1 Ti1 V1,B2,ANNEAL,other,,,5.5,,C,800,560,700,,,,,,,
68,Al1 Nb1 Ti1 V1,B2,ANNEAL,other,,,5.5,,C,25,1000,1280,,,,,,,
68,Al1 Nb1 Ti1 V1 Zr1,B2+Laves+Sec.,ANNEAL,other,,,5.8,,C,600,1155,1385,,,,,,,
68,Al1 Nb1 Ti1 V1 Zr1,B2+Laves+Sec.,ANNEAL,other,,,5.8,,C,800,550,600,,,,,,,
68,Al1 Nb1 Ti1 V1 Zr1,B2+Laves+Sec.,ANNEAL,other,,,5.8,,C,25,1500,1675,,,,,,,
68,Al1 Nb1 Ti1 V1 Zr0.1,B2+Sec.,ANNEAL,other,,,5.5,,C,600,975,1085,,,,,,,
68,Al1 Nb1 Ti1 V1 Zr0.1,B2+Sec.,ANNEAL,other,,,5.5,,C,800,865,920,,,,,,,
68,Al1 Nb1 Ti1 V1 Zr0.1,B2+Sec.,ANNEAL,other,,,5.5,,C,25,1290,1395,,,,,,,
68,Al1 Nb1 Ti1 V1 Zr0.25,B2+Sec.,ANNEAL,other,,,5.6,,C,600,1065,1260,,,,,,,
68,Al1 Nb1 Ti1 V1 Zr0.25,B2+Sec.,ANNEAL,other,,,5.6,,C,800,855,865,,,,,,,
68,Al1 Nb1 Ti1 V1 Zr0.25,B2+Sec.,ANNEAL,other,,,5.6,,C,25,1360,1480,,,,,,,
68,Al1 Nb1 Ti1 V1 Zr0.5,B2+Laves+Sec.,ANNEAL,other,,,5.6,,C,600,1135,1425,,,,,,,
68,Al1 Nb1 Ti1 V1 Zr0.5,B2+Laves+Sec.,ANNEAL,other,,,5.6,,C,800,675,740,,,,,,,
68,Al1 Nb1 Ti1 V1 Zr0.5,B2+Laves+Sec.,ANNEAL,other,,,5.6,,C,25,1485,,,,,,,,
68,Al0.667 Nb0.667 Ti0.667 V0.667 Zr1,B2+Laves+Sec.,ANNEAL,other,,,5.8,,C,600,1195,1195,,,,,,,
68,Al0.667 Nb0.667 Ti0.667 V0.667 Zr1,B2+Laves+Sec.,ANNEAL,other,,,5.8,,C,800,180,395,,,,,,,
68,Al0.667 Nb0.667 Ti0.667 V0.667 Zr1,B2+Laves+Sec.,ANNEAL,other,,,5.8,,C,25,1535,1550,,,,,,,
69,Co1 Cr1 Mo1 Nb1,BCC+Laves,CAST,other,,,8.8,,C,25,,1419.6,,,,,,,
69,Co1 Cr1 Mo1 Nb1 Ti1,BCC+Laves,CAST,other,,,7.8,,C,25,,1096.8,,,,,,,
69,Co1 Cr1 Mo1 Nb1 Ti0.2,BCC+Laves,CAST,other,,,8.5,,C,25,,1905.6,,,,,,,
69,Co1 Cr1 Mo1 Nb1 Ti0.4,BCC,CAST,BCC,,,8.3,,C,25,,1771.3,,,,212,,,
69,Co1 Cr1 Mo1 Nb1 Ti0.5,BCC+Laves,CAST,other,,,8.2,,C,25,,1609.2,,,,,,,
70,Cr1 Hf1 Nb1 Ti1 Zr1,BCC+Laves,ANNEAL,other,,,8.2,,C,25,1457,1908,,,,,,,
70,Cr1 Hf1 Nb1 Ti1 Zr1,BCC+Laves,ANNEAL,other,,,8.2,,C,25,1420,1885,4.2,,,,,,
70,Cr1 Hf1 Nb1 Ti1 Zr1,BCC+Laves,ANNEAL,other,,,8.2,,C,25,1328,1884,,,,,,,
70,Cr1 Hf1 Nb1 Ti1 Zr1,BCC+Laves,ANNEAL,other,,,8.2,,C,25,1322,1726,,,,,,,
70,Cr1 Hf1 Nb1 Ti1 Zr1,BCC+Laves,CAST,other,,,8.2,,C,25,1375,2130,3,,,,,,
70,Hf1 Nb1 Ti1 V1 Zr1,BCC+Laves,ANNEAL,other,,,8.1,,C,25,1157,1468,,,,,,,
70,Hf1 Nb1 Ti1 V1 Zr1,BCC,ANNEAL,BCC,,,8.1,,C,25,1253,1393,,,,95,,,
70,Hf1 Nb1 Ti1 V1 Zr1,BCC,ANNEAL,BCC,,,8.1,,C,25,1140,1463,,,,95,,,
70,Hf1 Nb1 Ti1 V1 Zr1,BCC,ANNEAL,BCC,,,8.1,,C,25,1120,1376,30,,,95,,,
70,Hf1 Nb1 Ti1 V1 Zr1,BCC+Laves,CAST,other,,,8.1,,C,25,1170,1463,29.6,,,,,,
71,Cr1 Ta1 Ti0.17 V1 W1,BCC+Laves,POWDER,other,,,12.6,715,C,25,2034,,1.5,,,,,,
71,Cr1 Ta1 Ti0.17 V1 W1,BCC+Laves,POWDER,other,,,12.6,,C,1200,750,,1.5,,,,,,
71,Cr1 Ta1 Ti0.3 V1 W1,BCC+Laves,POWDER,other,,,12.3,780,C,25,2050,,1.5,,,,,,
71,Cr1 Ta1 Ti0.3 V1 W1,BCC+Laves,POWDER,other,,,12.3,,C,1200,586,,1.5,,,,,,
71,Cr1 Ta1 V1 W1,BCC+Laves,POWDER,other,,,13,715,C,25,2327,,1.5,,,,,,
71,Cr1 Ta1 V1 W1,BCC+Laves,POWDER,other,,,13,,C,1200,979,,1.5,,,,,,
72,Hf0.26 Nb1 Ta1 Ti0.578 Zr0.416,BCC,CAST,BCC,,,10.4,,C,60,795,,,,,122,,,
72,Hf0.26 Nb1 Ta1 Ti0.578 Zr0.416,BCC,CAST,BCC,,,10.4,,C,100,765,,,,,122,,,
72,Hf0.26 Nb1 Ta1 Ti0.578 Zr0.416,BCC,CAST,BCC,,,10.4,,C,200,650,,,,,122,,,
72,Hf0.26 Nb1 Ta1 Ti0.578 Zr0.416,BCC,CAST,BCC,,,10.4,,C,300,590,,,,,122,,,
72,Hf0.26 Nb1 Ta1 Ti0.578 Zr0.416,BCC,CAST,BCC,,,10.4,,C,25,845,,,,,122,,,
73,Hf0.5 Mo0.5 Nb1 Si0.1 Ti1 Zr1,BCC+Sec.,CAST,other,,,7.7,442,C,25,1350,2150,,28,,,,,
73,Hf0.5 Mo0.5 Nb1 Si0.3 Ti1 Zr1,BCC+Sec.,CAST,other,,,7.5,494,C,25,1370,1950,,23,,,,,
73,Hf0.5 Mo0.5 Nb1 Si0.5 Ti1 Zr1,BCC+Sec.,CAST,other,,,7.2,524,C,25,1600,1900,,23,,,,,
73,Hf0.5 Mo0.5 Nb1 Si0.7 Ti1 Zr1,BCC+Sec.,CAST,other,,,7,580,C,25,1550,1900,,12,,,,,
73,Hf0.5 Mo0.5 Nb1 Si0.9 Ti1 Zr1,BCC+Sec.,CAST,other,,,6.8,640,C,25,1650,2000,,9,,,,,
73,Hf0.5 Mo0.5 Nb1 Ti1 Zr1,BCC+Sec.,CAST,other,,,7.9,400,C,25,1150,1500,,25,,,,,
74,Hf0.5 Nb0.667 Ta0.333 Ti1 Zr0.833,BCC,WROUGHT,BCC,,,8.4,,C,-268.8,2250,,,,,100,,,
74,Hf0.5 Nb0.667 Ta0.333 Ti1 Zr0.833,BCC,WROUGHT,BCC,,,8.4,,C,-268.8,2210,,,,,100,,,
74,Hf0.5 Nb0.667 Ta0.333 Ti1 Zr0.833,BCC,WROUGHT,BCC,,,8.4,,C,-196,1880,,,,,100,,,
74,Hf0.5 Nb0.667 Ta0.333 Ti1 Zr0.833,BCC,WROUGHT,BCC,,,8.4,,C,-196,1750,,,,,100,,,
74,Hf0.5 Nb0.667 Ta0.333 Ti1 Zr0.833,BCC,WROUGHT,BCC,,,8.4,,C,-153,1640,,,,,100,,,
74,Hf0.5 Nb0.667 Ta0.333 Ti1 Zr0.833,BCC,WROUGHT,BCC,,,8.4,,C,-153,1550,,,,,100,,,
74,Hf0.5 Nb0.667 Ta0.333 Ti1 Zr0.833,BCC,WROUGHT,BCC,,,8.4,,C,-103,1380,,,,,100,,,
74,Hf0.5 Nb0.667 Ta0.333 Ti1 Zr0.833,BCC,WROUGHT,BCC,,,8.4,,C,-103,1370,,,,,100,,,
74,Hf0.5 Nb0.667 Ta0.333 Ti1 Zr0.833,BCC,WROUGHT,BCC,,,8.4,,C,-43,1200,,,,,100,,,
74,Hf0.5 Nb0.667 Ta0.333 Ti1 Zr0.833,BCC,WROUGHT,BCC,,,8.4,,C,-43,1180,,,,,100,,,
74,Hf0.5 Nb0.667 Ta0.333 Ti1 Zr0.833,BCC,WROUGHT,BCC,,,8.4,,C,72,1040,,,,,100,,,
74,Hf0.5 Nb0.667 Ta0.333 Ti1 Zr0.833,BCC,WROUGHT,BCC,,,8.4,,C,72,1020,,,,,100,,,
74,Hf0.5 Nb0.667 Ta0.333 Ti1 Zr0.833,BCC,WROUGHT,BCC,,,8.4,,C,25,1150,,,,,100,,,
74,Hf0.5 Nb0.667 Ta0.333 Ti1 Zr0.833,BCC,WROUGHT,BCC,,,8.4,,C,25,1100,,,,,100,,,
74,Hf0.5 Nb0.667 Ta0.333 Ti1 Zr0.833,BCC,WROUGHT,BCC,,,8.4,,C,-268.8,2390,,,,,100,,,
74,Hf0.5 Nb0.667 Ta0.333 Ti1 Zr0.833,BCC,WROUGHT,BCC,,,8.4,,C,-196,1920,,,,,100,,,
74,Hf0.5 Nb0.667 Ta0.333 Ti1 Zr0.833,BCC,WROUGHT,BCC,,,8.4,,C,-153,1370,,,,,100,,,
74,Hf0.5 Nb0.667 Ta0.333 Ti1 Zr0.833,BCC,WROUGHT,BCC,,,8.4,,C,-103,1250,,,,,100,,,
74,Hf0.5 Nb0.667 Ta0.333 Ti1 Zr0.833,BCC,WROUGHT,BCC,,,8.4,,C,-43,1020,,,,,100,,,
74,Hf0.5 Nb0.667 Ta0.333 Ti1 Zr0.833,BCC,WROUGHT,BCC,,,8.4,,C,72,640,,,,,100,,,
74,Hf0.5 Nb0.667 Ta0.333 Ti1 Zr0.833,BCC,WROUGHT,BCC,,,8.4,,C,25,890,,,,,100,,,
75,Hf1 Mo0.5 Nb1 Si0.3 Ti1 V0.5,BCC+Sec.,CAST,other,,,8.5,,C,1000,398,430,,,,,,,
75,Hf1 Mo0.5 Nb1 Si0.3 Ti1 V0.5,BCC+Sec.,CAST,other,,,8.5,,C,25,1617,2016,,,,,,,
75,Hf1 Mo0.5 Nb1 Si0.3 Ti1 V0.5,BCC+Sec.,CAST,other,,,8.5,,C,1200,166,187,,,,,,,
75,Hf1 Mo0.5 Nb1 Si0.5 Ti1 V0.5,BCC+Sec.,CAST,other,,,8.2,,C,1000,614,696,,,,,,,
75,Hf1 Mo0.5 Nb1 Si0.5 Ti1 V0.5,BCC+Sec.,CAST,other,,,8.2,,C,25,1787,2052,,,,,,,
75,Hf1 Mo0.5 Nb1 Si0.5 Ti1 V0.5,BCC+Sec.,CAST,other,,,8.2,,C,1200,188,219,,,,,,,
75,Hf1 Mo0.5 Nb1 Si0.7 Ti1 V0.5,BCC+Sec.,CAST,other,,,7.9,,C,1000,673,741,,,,,,,
75,Hf1 Mo0.5 Nb1 Si0.7 Ti1 V0.5,BCC+Sec.,CAST,other,,,7.9,,C,25,2134,2242,,,,,,,
75,Hf1 Mo0.5 Nb1 Si0.7 Ti1 V0.5,BCC+Sec.,CAST,other,,,7.9,,C,1200,235,268,,,,,,,
75,Hf1 Mo0.5 Nb1 Ti1 V0.5,BCC,CAST,BCC,,,9,,C,1000,368,394,,,,126,,,
75,Hf1 Mo0.5 Nb1 Ti1 V0.5,BCC,CAST,BCC,,,9,,C,1200,60,,,,,126,,,
75,Hf1 Mo0.5 Nb1 Ti1 V0.5,BCC,CAST,BCC,,,9,,C,25,1260,,,,,126,,,
76,Hf0.787 Nb0.142 Ta0.142 Ti1 Zr0.787,BCC,WROUGHT,BCC,,,8.5,,T,25,540,995,,,,92,,,