IDENTIFIER: Reference ID,FORMULA,PROPERTY: Microstructure,PROPERTY: Processing method,PROPERTY: BCC/FCC/other,PROPERTY: grain size ($\mu$m),PROPERTY: Exp. Density (g/cm$^3$),PROPERTY: Calculated Density (g/cm$^3$),PROPERTY: HV,PROPERTY: Type of test,PROPERTY: Test temperature ($^\circ$C),PROPERTY: YS (MPa),PROPERTY: UTS (MPa),PROPERTY: Elongation (%),PROPERTY: Elongation plastic (%),PROPERTY: Exp. Young modulus (GPa),PROPERTY: Calculated Young modulus (GPa),PROPERTY: O content (wppm),PROPERTY: N content (wppm),PROPERTY: C content (wppm)
27,Al0.25 Co1 Fe1 Ni1,FCC,CAST,FCC,,,7.9,138,C,25,158,,,,,192,,,
27,Al0.5 Co1 Fe1 Ni1,FCC+BCC,CAST,other,,,7.4,212,C,25,346,,,,,,,,
27,Al0.75 Co1 Fe1 Ni1,FCC+BCC,CAST,other,,,7,385,C,25,794,,,,,,,,
27,Al1 Co1 Fe1 Ni1,BCC,CAST,BCC,,,6.6,456,C,25,964,,,,,162,,,
27,Co1 Fe1 Ni1,FCC,CAST,FCC,,,8.5,125,C,25,204,,,,,207,,,
27,Co1 Fe1 Ni1,FCC,CAST,FCC,,,8.5,125,C,25,209,,,,,207,,,
27,Co1 Fe1 Ni1 Si0.25,FCC,CAST,FCC,,,7.7,149,C,25,196,,,,,186,,,
27,Co1 Fe1 Ni1 Si0.5,FCC+Sec.,CAST,other,,,7.1,287,C,25,476,,,,,,,,
27,Co1 Fe1 Ni1 Si0.75,FCC+Sec.,CAST,other,,,6.6,570,C,25,1301,,,,,,,,
37,Co1 Cr1 Fe1 Ni1,FCC,WROUGHT,FCC,24,,8.2,,T,25,274,708,39,,,226,,,
37,Co1 Cr1 Mn1 Ni1,FCC,WROUGHT,FCC,36,,8.1,,T,25,282,694,44,,,222,,,
37,Co1 Cr1 Ni1,FCC,WROUGHT,FCC,41,,8.3,,T,25,300,860,60,,,231,,,
37,Co1 Fe1 Mn1 Ni1,FCC,WROUGHT,FCC,48,,8.2,,T,25,170,550,41,,,204,,,
37,Co1 Fe1 Ni1,FCC,WROUGHT,FCC,28,,8.5,,T,25,211,513,31,,,207,,,
37,Co1 Mn1 Ni1,FCC,WROUGHT,FCC,32,,8.4,,T,25,231,653,38,,,202,,,
37,Fe1 Mn1 Ni1,FCC,WROUGHT,FCC,30,,8.1,,T,25,221,602,36,,,203,,,
46,Co1 Cr1 Fe1 Nb0.103 Ni1,FCC+Sec.,CAST,other,175,,8.2,,T,25,318,622,19,,,,,,
46,Co1 Cr1 Fe1 Nb0.155 Ni1,FCC+Sec.,CAST,other,175,,8.2,,T,25,322,744,23,,,,,,
46,Co1 Cr1 Fe1 Nb0.206 Ni1,FCC+Sec.,CAST,other,175,,8.2,,T,25,403,807,9,,,,,,
46,Co1 Cr1 Fe1 Nb0.309 Ni1,FCC+Sec.,CAST,other,175,,8.2,,T,25,479,879,4,,,,,,
46,Co1 Cr1 Fe1 Nb0.412 Ni1,FCC+Sec.,CAST,other,175,,8.2,,T,25,638,1004,1,,,,,,
46,Co1 Cr1 Fe1 Ni1,FCC,CAST,FCC,175,,8.2,,T,25,148,413,48,,,226,,,
54,Al0.25 Co1 Cr1 Fe1 Ni1,FCC,ANNEAL,FCC,,,7.7,110,,25,,,,,,213,,,
54,Al0.25 Co1 Cr1 Fe1 Ni1,FCC,ANNEAL,FCC,,,7.7,113,,25,,,,,,213,,,
54,Al0.375 Co1 Cr1 Fe1 Ni1,FCC,ANNEAL,FCC,,,7.5,131,,25,,,,,,207,,,
54,Al0.375 Co1 Cr1 Fe1 Ni1,FCC,ANNEAL,FCC,,,7.5,196,,25,,,,,,207,,,
54,Al0.5 Co1 Cr1 Fe1 Ni1,FCC+BCC,ANNEAL,other,,,7.3,159,,25,,,,,,,,,
54,Al0.5 Co1 Cr1 Fe1 Ni1,FCC+BCC,ANNEAL,other,,,7.3,209,,25,,,,,,,,,
54,Al0.75 Co1 Cr1 Fe1 Ni1,FCC+BCC,ANNEAL,other,,,7,388,,25,,,,,,,,,
54,Al0.75 Co1 Cr1 Fe1 Ni1,FCC+BCC,ANNEAL,other,,,7,280,,25,,,,,,,,,
54,Al0.875 Co1 Cr1 Fe1 Ni1,BCC,ANNEAL,BCC,,,6.9,538,,25,,,,,,188,,,
54,Al0.875 Co1 Cr1 Fe1 Ni1,FCC+BCC,ANNEAL,other,,,6.9,361,,25,,,,,,,,,
54,Al1 Co0.8 Cr0.8 Fe0.8 Ni0.8,BCC,ANNEAL,BCC,,,6.5,487,,25,,,,,,177,,,
54,Al1 Co0.8 Cr0.8 Fe0.8 Ni0.8,BCC,ANNEAL,BCC,,,6.5,499,,25,,,,,,177,,,
54,Al1 Co0.667 Cr0.667 Fe0.667 Ni0.667,BCC,ANNEAL,BCC,,,6.2,484,,25,,,,,,171,,,
54,Al1 Co0.667 Cr0.667 Fe0.667 Ni0.667,BCC,ANNEAL,BCC,,,6.2,517,,25,,,,,,171,,,
54,Al1 Co0.5 Cr0.5 Fe0.5 Ni0.5,BCC,ANNEAL,BCC,,,5.9,509,,25,,,,,,160,,,
54,Al1 Co0.5 Cr0.5 Fe0.5 Ni0.5,BCC,ANNEAL,BCC,,,5.9,512,,25,,,,,,160,,,
54,Al1 Co1 Cr1 Fe1 Ni1,BCC,ANNEAL,BCC,,,6.7,484,,25,,,,,,184,,,
54,Al1 Co1 Cr1 Fe1 Ni1,FCC+BCC,ANNEAL,other,,,6.7,433,,25,,,,,,,,,
54,Co1 Cr1 Fe1 Ni1,FCC,ANNEAL,FCC,,,8.2,116,,25,,,,,,226,,,
54,Co1 Cr1 Fe1 Ni1,FCC,ANNEAL,FCC,,,8.2,113,,25,,,,,,226,,,
63,Al0.5 Co1 Cr1 Fe1 Mo0.5 Ni1,FCC+Sec.,CAST,other,,,7.7,425,,25,,,,,,,,,
63,Al1 Co0.667 Cr0.667 Fe0.667 Mo0.333 Ni0.667,B2+Sec.,CAST,other,,,6.6,655,,25,,,,,,,,,
63,Al1 Co0.5 Cr0.5 Fe0.5 Mo0.25 Ni0.5,BCC+B2,CAST,other,,,6.3,605,,25,,,,,,,,,
63,Al1 Co1 Cr1 Fe1 Mo0.5 Ni1,B2+Sec.,CAST,other,,,7.1,715,,25,,,,,,,,,
63,Co1 Cr1 Fe1 Mo0.5 Ni1,FCC+Sec.,CAST,other,,,8.5,210,,25,,,,,,,,,
66,Al0.5 Co1 Cr1 Fe1 Ni1 Ti1,BCC+Laves,CAST,other,,,6.6,,C,25,,1600,,10,107,,,,
66,Al1 Co0.667 Cr0.667 Fe0.667 Ni0.667 Ti0.667,BCC+BCC,CAST,other,,,5.9,,C,25,,2110,,10,133,,,,
66,Al1 Co0.5 Cr0.5 Fe0.5 Ni0.5 Ti0.5,BCC+BCC,CAST,other,,,5.6,643,C,25,,1030,,5,94,,,,
66,Al1 Co1 Cr1 Fe1 Ni1 Ti1,BCC+Laves,CAST,other,0.15,,6.2,,C,25,,2280,,6,148,,,,
66,Co1 Cr1 Fe1 Ni1 Ti1,FCC,CAST,FCC,,,7.2,,C,25,,2020,,9,135,195,,,
1,Al0.133 Co1 Cr0.667 Fe0.667 Ni1 Ti0.667,FCC+Sec.,ANNEAL,other,,,7.2,717,,25,,,,,,,,,
1,Al0.133 Co1 Cr0.667 Fe0.667 Ni1 Ti0.333,FCC,ANNEAL,FCC,,,7.6,487,,25,,,,,,201,,,
1,Co1 Cr0.667 Fe0.667 Ni1 Ti0.667,FCC+Sec.,ANNEAL,other,,,7.4,654,,25,,,,,,,,,
1,Co1 Cr0.667 Fe0.667 Ni1 Ti0.333,FCC,ANNEAL,other,,,7.8,509,,25,,,,,,,,,
2,Al0.7 Co0.3 Cr1 Fe1 Ni1,FCC+BCC+B2,POWDER,other,,,6.8,624,C,25,2033,2635,8,,,,,,
3,Al0.875 Co1 Cr1 Fe1 Ni1,FCC+BCC,,other,,,6.9,,,25,,,,,,,,,
4,Al1 Co0.667 Cr0.667 Fe0.667 Ni0.667,BCC,CAST,BCC,,,6.2,402,,25,,,,,,171,,,
4,Al1 Co0.4 Cr0.4 Fe0.4 Ni0.4,BCC,CAST,BCC,,,5.6,487,,25,,,,,,152,,,
4,Al1 Co0.5 Cr0.5 Fe0.5 Ni0.5,BCC,CAST,BCC,,,5.9,432,,25,,,,,,160,,,
4,Al1 Co0.333 Cr0.333 Fe0.333 Ni0.333,BCC,CAST,BCC,,,5.3,506,,25,,,,,,145,,,
4,Al1 Co1 Cr1 Fe1 Ni1,BCC,CAST,BCC,,,6.7,395,,25,,,,,,184,,,
4,Al1 Cr1 Cu1 Fe1 Ni1,FCC+BCC,CAST,other,,,6.8,342,,25,,,,,,,,,
4,Co1 Cr1 Cu1 Fe1 Ni1,FCC,CAST,FCC,,,8.3,286,,25,,,,,,206,,,
4,Cr1 Cu1 Fe1 Mn1 Ni1,FCC+BCC,CAST,other,,,8.1,296,,25,,,,,,,,,
4,Cr1 Cu1 Fe1 Mo1 Ni1,FCC,CAST,FCC,,,8.7,263,,25,,,,,,236,,,
5,Al1 Co1 Cr1 Fe1 Ni1,BCC,CAST,BCC,,,6.7,,C,25,1251,2004,,33,,184,,,
6,Al1 C0.1 Co1 Cr1 Fe1 Ni1,BCC+Sec.,CAST,other,,,6.7,,C,25,957,2550,,11,213,,,,
6,Al1 C0.2 Co1 Cr1 Fe1 Ni1,BCC+Sec.,CAST,other,,,6.6,,C,25,906,2386,,9,151,,,,
6,Al1 C0.3 Co1 Cr1 Fe1 Ni1,BCC+Sec.,CAST,other,,,6.5,,C,25,867,2178,,8,137,,,,
6,Al1 C0.4 Co1 Cr1 Fe1 Ni1,BCC+Sec.,CAST,other,,,6.5,,C,25,1056,2375,,7,156,,,,
6,Al1 C0.5 Co1 Cr1 Fe1 Ni1,BCC+Sec.,CAST,other,,,6.4,,C,25,1060,2250,,6,181,,,,
6,Al0.667 C1 Co0.667 Cr0.667 Fe0.667 Ni0.667,BCC+Sec.,CAST,other,,,5.9,,C,25,1255,2083,,6,73,,,,
6,Al1 C1 Co1 Cr1 Fe1 Ni1,BCC+Sec.,CAST,other,,,6.2,,C,25,1251,2166,,7,75,,,,
6,Al1 Co1 Cr1 Fe1 Ni1,BCC,CAST,BCC,,,6.7,,C,25,1138,,,11,,184,,,
7,Al1 Co1 Cr1 Fe1 Mo0.1 Ni1,BCC,CAST,BCC,,,6.8,,C,25,1804,2280,,9,,188,,,
7,Al1 Co1 Cr1 Fe1 Mo0.2 Ni1,BCC+Sec.,CAST,other,,,6.9,,C,25,2456,2953,,3,,,,,
7,Al1 Co1 Cr1 Fe1 Mo0.3 Ni1,BCC+Sec.,CAST,other,,,7,,C,25,2649,3208,,3,,,,,
7,Al1 Co1 Cr1 Fe1 Mo0.4 Ni1,BCC+Sec.,CAST,other,,,7,,C,25,2670,3161,,3,,,,,
7,Al1 Co1 Cr1 Fe1 Mo0.5 Ni1,BCC+Sec.,CAST,other,,,7.1,,C,25,2757,3036,,3,,,,,
7,Al1 Co1 Cr1 Fe1 Ni1,BCC,CAST,BCC,,,6.7,,C,25,1051,,,,,184,,,
8,Al1 Co1 Cr1 Fe1 Nb0.1 Ni1,BCC,CAST,BCC,,,6.8,569,C,25,1641,3285,,17,,182,,,
8,Al1 Co1 Cr1 Fe1 Nb0.25 Ni1,BCC+Sec.,CAST,other,,,6.8,668,C,25,1959,3008,,11,,,,,
8,Al1 Co1 Cr1 Fe1 Nb0.5 Ni1,BCC+Sec.,CAST,other,,,7,747,C,25,2473,3170,,4,,,,,
8,Al1 Co1 Cr1 Fe1 Nb0.75 Ni1,BCC+Sec.,CAST,other,,,7,,,25,,,,,,,,,
8,Al1 Co1 Cr1 Fe1 Ni1,BCC,CAST,BCC,,,6.7,520,C,25,1373,3531,,25,,184,,,
9,Al0.8 Co1 Cr1 Cu1 Fe1 Ni1,FCC+BCC,CAST,other,,,7.3,270,,25,,,,,,,,,
9,Al1 Co0.5 Cr1 Fe1 Mo0.5 Ni1,BCC+Sec.,CAST,other,,,7,801,,25,,,,,,,,,
9,Al0.667 Co1 Cr0.667 Fe0.667 Mo0.333 Ni0.667,BCC+Sec.,CAST,other,,,7.2,741,,25,,,,,,,,,
9,Al0.5 Co1 Cr0.5 Fe0.5 Mo0.25 Ni0.5,FCC+BCC+Sec.,CAST,other,200,,7.3,586,,25,,,,,,,,,
9,Al1 Co1 Cr1 Fe1 Mo0.5 Ni1,BCC+Sec.,CAST,other,,,7.1,796,,25,,,,,,,,,
10,Al1 Co1 Cr1 Fe1 Mo0.5 Ni1,BCC+Sec.,CAST,other,,,7.1,755,,25,,,,,,,,,
10,Al1 Co1 Cr1 Fe0.6 Mo0.5 Ni1,BCC+Sec.,CAST,other,,,7.1,754,,25,,,,,,,,,
10,Al0.667 Co0.667 Cr0.667 Fe1 Mo0.333 Ni0.667,BCC+Sec.,CAST,other,,,7.2,635,,25,,,,,,,,,
10,Al0.5 Co0.5 Cr0.5 Fe1 Mo0.25 Ni0.5,BCC+Sec.,CAST,other,,,7.2,639,,25,,,,,,,,,
11,Al1 Co1 Cr1 Fe1 Mo0.5,B2+Sec.,CAST,other,,,6.8,857,,25,,,,,,,,,
11,Al1 Co1 Cr1 Fe1 Mo0.5 Ni1,B2+Sec.,CAST,other,,,7.1,730,,25,,,,,,,,,
11,Al1 Co1 Cr1 Fe1 Mo0.5 Ni0.5,B2+Sec.,CAST,other,,,7,708,,25,,,,,,,,,
11,Al0.667 Co0.667 Cr0.667 Fe0.667 Mo0.333 Ni1,FCC+B2+Sec.,CAST,other,,,7.2,586,,25,,,,,,,,,
11,Al0.5 Co0.5 Cr0.5 Fe0.5 Mo0.25 Ni1,FCC+B2+Sec.,CAST,other,,,7.3,395,,25,,,,,,,,,
12,Al1 Co1 Cr1 Fe1 Ni1,BCC,CAST,BCC,,,6.7,,C,25,1110,,,,,184,,,
12,Al1 Co1 Cr1 Fe1 Ni1 Si1,BCC+Sec.,CAST,other,,,5.7,,C,25,2411,2950,,1,,,,,
12,Al1 Co1 Cr1 Fe1 Ni1 Si0.2,BCC,CAST,BCC,,,6.5,,C,25,1265,2173,,14,,176,,,
12,Al1 Co1 Cr1 Fe1 Ni1 Si0.4,BCC,CAST,BCC,,,6.2,,C,25,1481,2444,,13,,169,,,
12,Al1 Co1 Cr1 Fe1 Ni1 Si0.6,BCC,CAST,BCC,,,6,,C,25,1834,2195,,3,,162,,,
12,Al1 Co1 Cr1 Fe1 Ni1 Si0.8,BCC+Sec.,CAST,other,,,5.8,,C,25,2179,2664,,2,,,,,
13,Al0.25 Co1 Cr1 Cu0.5 Fe1 Ni1 Ti0.5,FCC,CAST,FCC,,,7.4,,,25,,,,,,192,,,
13,Al0.25 Co1 Cr1 Cu0.75 Fe1 Ni1 Ti0.5,FCC,CAST,FCC,,,7.5,,C,25,750,1970,,39,103,189,,,
13,Al0.5 Co1 Cr1 Cu0.5 Fe1 Ni1 Ti0.5,FCC+BCC,CAST,other,,,7.1,,C,25,1580,2389,,17,161,,,,
13,Al0.75 Co1 Cr1 Cu0.25 Fe1 Ni1 Ti0.5,FCC+BCC,CAST,other,,,6.8,,C,25,1900,2697,,12,164,,,,
13,Co1 Cr1 Cu1 Fe1 Ni1 Ti0.5,FCC,CAST,FCC,,,7.8,,C,25,700,1650,,29,93,194,,,
14,Al1 Co1 Cr1 Fe1 Ni1 Ti1,BCC+BCC,CAST,other,,,6.2,,C,25,1860,2580,10.7,9,90,,,,
14,Al1 Co1 Cr1 Fe1 Ni1 Ti0.5,BCC+BCC,CAST,other,,,6.4,178,C,25,2260,3140,24.4,23,178,,,,
14,Al0.667 Co0.667 Cr0.667 Fe0.667 Ni0.667 Ti1,BCC+Sec.,CAST,other,,,6.1,,C,25,2220,2720,6.6,5,160,,,,
15,Al1 Co1 Cr1 Fe1 Ni1 Ti1 V1 Zr1,,CAST,other,,,6.3,780,,25,,,,,,,,,
15,Al1 Co1 Fe1 Ni1 Ti1 V1 Zr1,BCC,CAST,BCC,,,6.2,790,,25,,,,,,129,,,
15,Al1 Fe1 Ni1 Ti1 V1 Zr1,BCC,CAST,BCC,,,5.9,800,,25,,,,,,119,,,
15,Co1 Cr1 Cu1 Fe1 Ni1 Ti1 V1 Zr1,,CAST,other,,,7.1,680,,25,,,,,,,,,
15,Co1 Cr1 Fe1 Mo1 Ni1 Ti1 V1 Zr1,,CAST,other,,,7.3,850,,25,,,,,,,,,
15,Co1 Cu1 Fe1 Ni1 Ti1 V1 Zr1,,CAST,other,,,7.1,630,,25,,,,,,,,,
15,Co1 Fe1 Mo1 Ni1 Ti1 V1 Zr1,,CAST,other,,,7.3,790,,25,,,,,,,,,
15,Cu1 Fe1 Ni1 Ti1 V1 Zr1,,CAST,other,,,6.8,590,,25,,,,,,,,,
15,Fe1 Mo1 Ni1 Ti1 V1 Zr1,BCC+Sec.,CAST,other,,,7.1,740,,25,,,,,,,,,
16,Al0.1 Co1 Cr1 Fe1 Mn1 Ni1,FCC,CAST,FCC,,,7.9,180,,25,,,,,,216,,,
16,Al0.2 Co1 Cr1 Fe1 Mn1 Ni1,FCC,CAST,FCC,,,7.7,171,T,25,220,,56,,,212,,,
16,Al0.38 Co1 Cr1 Fe1 Mn1 Ni1,FCC,CAST,FCC,,,7.5,182,T,25,244,,45,,,205,,,
16,Al0.43 Co1 Cr1 Fe1 Mn1 Ni1,FCC+BCC,CAST,other,,,7.4,183,T,25,285,,35,,,,,,
16,Al0.49 Co1 Cr1 Fe1 Mn1 Ni1,FCC+BCC,CAST,other,,,7.4,220,T,25,331,,29,,,,,,
16,Al0.56 Co1 Cr1 Fe1 Mn1 Ni1,FCC+BCC,CAST,other,,,7.3,278,T,25,526,,16,,,,,,
16,Al0.62 Co1 Cr1 Fe1 Mn1 Ni1,FCC+BCC,CAST,other,,,7.2,405,T,25,833,,5,,,,,,
16,Al0.68 Co1 Cr1 Fe1 Mn1 Ni1,FCC+BCC,CAST,other,,,7.2,486,,25,,,,,,,,,
16,Al0.75 Co1 Cr1 Fe1 Mn1 Ni1,FCC+BCC,CAST,other,,,7.1,530,,25,,,,,,,,,
16,Al0.81 Co1 Cr1 Fe1 Mn1 Ni1,FCC+BCC,CAST,other,,,7,539,,25,,,,,,,,,
16,Al0.88 Co1 Cr1 Fe1 Mn1 Ni1,FCC+BCC,CAST,other,,,7,533,,25,,,,,,,,,
16,Al0.95 Co1 Cr1 Fe1 Mn1 Ni1,FCC+BCC,CAST,other,,,6.9,535,,25,,,,,,,,,
16,Al1 Co0.8 Cr0.8 Fe0.8 Mn0.8 Ni0.8,BCC,CAST,BCC,,,6.6,539,,25,,,,,,180,,,
16,Co1 Cr1 Fe1 Mn1 Ni1,FCC,CAST,FCC,,,8,176,T,25,208,,62,,,220,,,
17,Co1 Cr1 Fe1 Mn1 Ni1,FCC,CAST,FCC,300,,8,144,C,25,,,,,,220,,,
17,Co1 Cr1 Fe1 Mn1 Ni1,FCC,ANNEAL,FCC,350,,8,135,C,25,230,,,75,,220,,,
17,Co1 Cr1 Fe1 Mn1 Ni1 V0.25,FCC,CAST,FCC,120,,7.9,151,C,25,,,,,,215,,,
17,Co1 Cr1 Fe1 Mn1 Ni1 V0.25,FCC+Sec.,ANNEAL,other,130,,7.9,144,C,25,200,,,75,,,,,
17,Co1 Cr1 Fe1 Mn1 Ni1 V0.5,FCC,CAST,FCC,220,,7.8,186,C,25,,,,,,210,,,
17,Co1 Cr1 Fe1 Mn1 Ni1 V0.5,FCC,ANNEAL,FCC,250,,7.8,275,C,25,620,,,75,,210,,,
17,Co1 Cr1 Fe1 Mn1 Ni1 V0.75,FCC+Sec.,ANNEAL,other,500,,7.7,380,C,25,740,1325,,7.8,,,,,
17,Co1 Cr1 Fe1 Mn1 Ni1 V0.75,FCC+Sec.,CAST,other,500,,7.7,342,C,25,,,,,,,,,
17,Co1 Cr1 Fe1 Mn1 Ni1 V1,FCC+Sec.,ANNEAL,other,12,,7.7,636,C,25,1660,1845,,0.5,,,,,
17,Co1 Cr1 Fe1 Mn1 Ni1 V1,FCC+Sec.,CAST,other,,,7.7,650,C,25,,,,,,,,,
18,Al0.2 Cr0.667 Fe1 Mn0.667 Ni0.333,FCC+BCC,CAST,other,,,7.2,297,,25,,,,,,,,,
18,Al0.333 Cr0.667 Fe1 Mn0.667 Ni0.333,BCC,CAST,BCC,,,7,396,,25,,,,,,201,,,
19,Al1 Cr1 Fe1 Ni1,BCC+B2,CAST,other,,,6.3,472,C,25,1406,2927,,29,,,,,
19,Al1 Cr1 Fe1 Mo1 Ni1,B2+Sec.,CAST,other,,,7.2,905,,25,,,,,,,,,
19,Al1 Cr1 Fe1 Mo0.2 Ni1,BCC+B2,CAST,other,,,6.5,549,C,25,1487,3222,,29,,,,,
19,Al1 Cr1 Fe1 Mo0.5 Ni1,BCC+B2,CAST,other,,,6.8,622,C,25,1749,2644,,13,,,,,
19,Al1 Cr1 Fe1 Mo0.8 Ni1,B2+Sec.,CAST,other,,,7,854,C,25,1513,1513,,0,,,,,
20,Al0.3 Co1 Cr1 Cu1 Fe1,FCC,,FCC,,,7.7,180,,25,,,,,,194,,,
20,Al0.5 Co1 Cr1 Cu1 Fe1,FCC,,FCC,,,7.4,207,,25,,,,,,187,,,
20,Al0.8 Co1 Cr1 Cu1 Fe1,FCC+BCC,,other,,,7,271,,25,,,,,,,,,
20,Al1 Co0.769 Cr0.769 Cu0.769 Fe0.769,FCC+BCC,,other,,,6.5,476,,25,,,,,,,,,
20,Al1 Co0.667 Cr0.667 Cu0.667 Fe0.667,FCC+BCC,,other,,,6.3,510,,25,,,,,,,,,
20,Al1 Co0.556 Cr0.556 Cu0.556 Fe0.556,FCC+BCC,,other,,,6.1,557,,25,,,,,,,,,
20,Al1 Co0.5 Cr0.5 Cu0.5 Fe0.5,FCC+BCC,,other,,,5.9,567,,25,,,,,,,,,
20,Al1 Co0.435 Cr0.435 Cu0.435 Fe0.435,FCC+BCC,,other,,,5.7,603,,25,,,,,,,,,
20,Al1 Co0.4 Cr0.4 Cu0.4 Fe0.4,FCC+BCC,,other,,,5.6,624,,25,,,,,,,,,
20,Al1 Co0.357 Cr0.357 Cu0.357 Fe0.357,BCC,,BCC,,,5.5,657,,25,,,,,,139,,,
20,Al1 Co0.333 Cr0.333 Cu0.333 Fe0.333,BCC,,BCC,,,5.4,644,,25,,,,,,136,,,
20,Al1 Co1 Cr1 Cu1 Fe1,FCC+BCC,,other,,,6.8,407,,25,,,,,,,,,
20,Co1 Cr1 Cu1 Fe1,FCC,,FCC,,,8.2,134,,25,,,,,,208,,,
21,Co1 Cr1 Cu0.5 Fe1 Ni1,FCC,CAST,FCC,,,8.3,172,,25,,,,,,215,,,
22,Co1 Cr1 Cu1 Fe1 Ni1 Ti1,FCC,CAST,FCC,,,7.4,,C,25,1272,1272,2,0,,185,,,
22,Co1 Cr1 Cu1 Fe1 Ni1 Ti0.5,FCC,CAST,FCC,,,7.8,,C,25,700,1650,22,21.6,,194,,,
22,Co1 Cr1 Cu1 Fe1 Ni1 Ti0.8,FCC+Sec.,CAST,other,,,7.6,,C,25,1042,1848,3,2.11,,,,,
23,Al0.5 B0.2 Co1 Cr1 Cu1 Fe1 Ni1,,CAST,other,,,7.5,415,,25,,,,,,,,,
23,Al0.5 B0.6 Co1 Cr1 Cu1 Fe1 Ni1,,CAST,other,,,7.3,505,,25,,,,,,,,,
23,Al0.5 B1 Co1 Cr1 Cu1 Fe1 Ni1,,CAST,other,,,7.1,736,,25,,,,,,,,,
23,Al0.5 Co1 Cr1 Cu1 Fe1 Ni1,,CAST,other,,,7.6,300,,25,,,,,,,,,
24,Al0.5 Co1 Cr1 Cu1 Fe1 Ni1,FCC,CAST,FCC,,,7.6,225,,25,,,,,,189,,,
24,Al0.5 Co1 Cr1 Cu1 Fe1 Ni1 Ti1,FCC+BCC+Sec.,CAST,other,,,7,636,,25,,,,,,,,,
24,Al0.5 Co1 Cr1 Cu1 Fe1 Ni1 Ti0.2,FCC,CAST,FCC,,,7.5,272,,25,,,,,,185,,,
24,Al0.5 Co1 Cr1 Cu1 Fe1 Ni1 Ti0.4,FCC,CAST,FCC,,,7.3,321,,25,,,,,,182,,,
24,Al0.5 Co1 Cr1 Cu1 Fe1 Ni1 Ti0.6,FCC+BCC,CAST,other,,,7.2,458,,25,,,,,,,,,
24,Al0.5 Co1 Cr1 Cu1 Fe1 Ni1 Ti0.8,FCC+BCC+Sec.,CAST,other,,,7.1,590,,25,,,,,,,,,
24,Al0.417 Co0.833 Cr0.833 Cu0.833 Fe0.833 Ni0.833 Ti1,FCC+BCC+Sec.,CAST,other,,,6.9,646,,25,,,,,,,,,
24,Al0.357 Co0.714 Cr0.714 Cu0.714 Fe0.714 Ni0.714 Ti1,FCC+BCC+B2+Sec.,CAST,other,,,6.8,664,,25,,,,,,,,,
24,Al0.312 Co0.625 Cr0.625 Cu0.625 Fe0.625 Ni0.625 Ti1,FCC+BCC+B2+Sec.,CAST,other,,,6.7,657,,25,,,,,,,,,
24,Al0.278 Co0.556 Cr0.556 Cu0.556 Fe0.556 Ni0.556 Ti1,FCC+BCC+B2+Sec.,CAST,other,,,6.6,667,,25,,,,,,,,,
24,Al0.25 Co0.5 Cr0.5 Cu0.5 Fe0.5 Ni0.5 Ti1,FCC+BCC+B2+Sec.,CAST,other,,,6.5,696,,25,,,,,,,,,
25,Al0.5 Co1 Cr1 Cu1 Fe1 Ni1,FCC,CAST,FCC,,,7.6,215,,25,,,,,,189,,,
25,Al0.5 Co1 Cr1 Cu1 Fe1 Ni1 V0.2,FCC,CAST,FCC,,,7.6,204,,25,,,,,,186,,,
25,Al0.5 Co1 Cr1 Cu1 Fe1 Ni1 V0.4,FCC+BCC,CAST,other,,,7.5,231,,25,,,,,,,,,
25,Al0.5 Co1 Cr1 Cu1 Fe1 Ni1 V0.6,FCC+BCC+Sec.,CAST,other,,,7.5,328,,25,,,,,,,,,
25,Al0.5 Co1 Cr1 Cu1 Fe1 Ni1 V0.8,FCC+BCC+Sec.,CAST,other,,,7.4,447,,25,,,,,,,,,
25,Al0.5 Co1 Cr1 Cu1 Fe1 Ni1 V1,FCC+BCC+Sec.,CAST,other,,,7.4,639,,25,,,,,,,,,
25,Al0.417 Co0.833 Cr0.833 Cu0.833 Fe0.833 Ni0.833 V1,BCC,CAST,BCC,,,7.3,579,,25,,,,,,177,,,
25,Al0.357 Co0.714 Cr0.714 Cu0.714 Fe0.714 Ni0.714 V1,BCC,CAST,BCC,,,7.3,577,,25,,,,,,175,,,
25,Al0.312 Co0.625 Cr0.625 Cu0.625 Fe0.625 Ni0.625 V1,BCC,CAST,BCC,,,7.2,594,,25,,,,,,174,,,
25,Al0.278 Co0.556 Cr0.556 Cu0.556 Fe0.556 Ni0.556 V1,BCC,CAST,BCC,,,7.2,597,,25,,,,,,172,,,
25,Al0.25 Co0.5 Cr0.5 Cu0.5 Fe0.5 Ni0.5 V1,BCC,CAST,BCC,,,7.2,587,,25,,,,,,171,,,
26,Al1 Co1 Cr1 Cu1 Fe1 Ni1,FCC+BCC,CAST,other,,,7.1,472,,25,,,,,,,,,
26,Al1 Co1 Cu1 Fe1 Nd1 Ni1,Other,CAST,other,,,7,578,,25,,,,,,,,,
26,Al1 Co1 Cu1 Fe1 Ni1,FCC+BCC,CAST,other,,,7,536,,25,,,,,,,,,
26,Al1 Co1 Cu1 Fe1 Ni1 Si1,FCC+BCC,CAST,other,,,5.9,682,,25,,,,,,,,,
26,Al1 Co1 Cu1 Fe1 Ni1 Ti1,FCC+BCC,CAST,other,,,6.5,626,,25,,,,,,,,,
26,Al1 Co1 Cu1 Fe1 Ni1 Zr1,FCC+BCC+Sec.,CAST,other,,,6.9,472,,25,,,,,,,,,
28,Al1 Co1 Cr1 Cu1 Fe1 Mn1 Ni1,FCC+BCC+Sec.,CAST,other,,,7.1,,C,25,1005,,15,,,,,,
28,Al1 Co1 Cr1 Cu1 Fe1 Ni1,FCC+BCC,CAST,other,,,7.1,,C,25,1303,,24,,,,,,
28,Al1 Co1 Cr1 Cu1 Fe1 Ni1 Ti1,FCC+BCC+BCC,CAST,other,,,6.6,,C,25,1234,,9,,,,,,
28,Al1 Co1 Cr1 Cu1 Fe1 Ni1 V1,FCC+BCC,CAST,other,,,6.9,,C,25,1469,,16,,,,,,
29,Al1 Co1 Cr1 Cu1 Ni1 Ti1,BCC,,BCC,,,6.4,,C,25,,1495,,8,36,157,,,
29,Al1 Co1 Cr1 Cu1 Ni1 Ti1 Y1,Other,CAST,other,,,5.8,,C,25,,1192,,4,37,,,,
29,Al1 Co1 Cr1 Cu1 Ni1 Ti1 Y0.5,Other,CAST,other,,,6.1,,C,25,,1025,,3,36,,,,
29,Al1 Co1 Cr1 Cu1 Ni1 Ti1 Y0.8,Other,CAST,other,,,5.9,,C,25,,1325,,5,38,,,,
30,Co1 Cu1 Fe1 Ni1,FCC,CAST,FCC,,,8.6,,T,25,,480,,15,,187,,,
30,Co1 Cu1 Fe1 Ni1 Sn0.02,FCC,CAST,FCC,,,8.6,,T,25,,548,,17,,185,,,
30,Co1 Cu1 Fe1 Ni1 Sn0.04,FCC+Sec.,CAST,other,,,8.6,,T,25,,594,,18,,,,,
30,Co1 Cu1 Fe1 Ni1 Sn0.05,FCC+Sec.,CAST,other,,,8.6,,T,25,,615,,20,,,,,
30,Co1 Cu1 Fe1 Ni1 Sn0.07,FCC+Sec.,CAST,other,,,8.6,,T,25,,632,,19,,,,,
30,Co1 Cu1 Fe1 Ni1 Sn0.1,FCC+Sec.,CAST,other,,,8.6,,T,25,,602,,5,,,,,
30,Co1 Cu1 Fe1 Ni1 Sn0.2,FCC+Sec.,CAST,other,,,8.5,,T,25,,261,,2,,,,,
30,Co1 Cu1 Fe1 Ni1 Sn0.5,FCC+Sec.,CAST,other,,,8.3,,,25,,,,,,,,,
31,Co1 Cu1 Fe1 Mn1 Ni1,FCC,CAST,FCC,,,8.4,208,T,25,,478,,14,,189,,,
31,Co1 Cu1 Fe1 Mn1 Ni1 Sn0.03,FCC,CAST,FCC,,,8.4,192,T,25,,465,,18,,187,,,
31,Co1 Cu1 Fe1 Mn1 Ni1 Sn0.05,FCC+Sec.,CAST,other,,,8.4,205,T,25,,475,,12,,,,,
31,Co1 Cu1 Fe1 Mn1 Ni1 Sn0.08,FCC+Sec.,CAST,other,,,8.3,219,T,25,,425,,7,,,,,
31,Co1 Cu1 Fe1 Mn1 Ni1 Sn0.1,FCC+Sec.,CAST,other,,,8.3,253,T,25,,470,,6,,,,,
31,Co1 Cu1 Fe1 Mn1 Ni1 Sn0.2,FCC+Sec.,CAST,other,,,8.3,319,T,25,,368,,2,,,,,
32,Al1 Cr1 Cu1 Fe1 Ni1,FCC+BCC,ANNEAL,other,,,6.8,495,,25,,,,,,,,,
32,Al1 Cr1 Cu1 Fe1 Ni0.6,FCC+BCC,ANNEAL,other,,,6.6,496,,25,,,,,,,,,
32,Al1 Cr1 Cu1 Fe1 Ni0.8,FCC+BCC,ANNEAL,other,,,6.7,486,,25,,,,,,,,,
32,Al0.833 Cr0.833 Cu0.833 Fe0.833 Ni1,FCC+BCC,ANNEAL,other,,,6.8,407,,25,,,,,,,,,
32,Al0.714 Cr0.714 Cu0.714 Fe0.714 Ni1,FCC+BCC,ANNEAL,other,,,6.9,367,,25,,,,,,,,,
32,Co1 Cr1 Cu1 Fe1 Ni1,FCC,,FCC,,,8.3,286,C,25,230,888,51,,,206,,,
33,Al0.1 Cr0.5 Cu0.5 Fe0.5 Ni1,FCC,,FCC,,,8,,,25,,,,,,197,,,
33,Al0.2 Cr0.5 Cu0.5 Fe0.5 Ni1,FCC,,FCC,,,7.8,,,25,,,,,,190,,,
33,Al0.3 Cr0.5 Cu0.5 Fe0.5 Ni1,FCC,,FCC,,,7.5,,,25,,,,,,185,,,
33,Al0.4 Cr0.5 Cu0.5 Fe0.5 Ni1,FCC,,FCC,,,7.3,,,25,,,,,,179,,,
33,Al0.6 Cr0.5 Cu0.5 Fe0.5 Ni1,FCC+BCC,,other,,,6.9,,,25,,,,,,,,,
33,Al0.5 Cr0.5 Cu0.5 Fe0.5 Ni1,FCC+BCC,,other,,,7.1,,,25,,,,,,,,,
34,Al1 Cr1 Cu1 Fe1 Ni1 Ti1,BCC+BCC+Sec.,ANNEAL,other,,,6.3,,C,25,,1219,,,,,,,
35,Al1 Cu0.889 Fe0.667 Ni0.889 Ti1,FCC,CAST,FCC,,,5.9,516,C,25,980,1326,,7,145,131,,,
35,Al1 Cu1 Fe1 Ni1 Ti1,FCC,CAST,FCC,,,6.1,516,C,25,1074,1617,,8,146,137,,,
35,Al1 Cu1 Ni1 Ti1,FCC,CAST,FCC,,,5.7,537,C,25,300,536,,0.85,108,122,,,
36,Al1 Cu0.062 Li0.062 Mg0.062 Zn0.062,FCC+Sec.,CAST,other,,,2.9,,C,25,488,879,17,,,,,,
36,Al1 Li0.062 Mg0.062 Sn0.062 Zn0.062,FCC+Sec.,CAST,other,,,3,,C,25,415,836,16,,,,,,
36,Al1 Cu0.2 Li0.5 Mg1 Zn0.5,Other,CAST,other,,,2.7,,,25,,,,,,,,,
36,Al1 Cu0.5 Li0.5 Mg1 Sn0.2,Other,CAST,other,,,3,,,25,,,,,,,,,
36,Al1 Li0.5 Mg1 Sn0.2 Zn0.5,FCC+Sec.,CAST,other,,,2.9,,C,25,546,546,,,,,,,
36,Al1 Li1 Mg1 Sn1 Zn1,FCC+HCP+Sec.,CAST,other,,,3.9,,C,25,600,615,1,,,,,,
38,Al0.667 Li0.667 Mg0.333 Sc0.667 Ti1,FCC+HCP,,other,,,2.7,591,,25,,,,,,,,,
39,Al0.214 Nb0.714 Ta0.571 Ti1 V0.143 Zr0.929,BCC,OTHER,BCC,180,,7.7,500,C,25,1965,2061,5,,,107,,,
39,Al0.214 Nb0.714 Ta0.571 Ti1 V0.143 Zr0.929,BCC,OTHER,BCC,,,7.7,,C,800,678,693,50,,,107,,,
39,Al0.214 Nb0.714 Ta0.571 Ti1 V0.143 Zr0.929,BCC,OTHER,BCC,,,7.7,,C,1000,166,189,50,,,107,,,
39,Al0.214 Nb0.714 Ta0.714 Ti1 Zr0.929,BCC,OTHER,BCC,200,,8.1,490,C,25,1965,2054,5,,,110,,,
39,Al0.214 Nb0.714 Ta0.714 Ti1 Zr0.929,BCC,OTHER,BCC,,,8.1,,C,800,362,397,50,,,110,,,
39,Al0.214 Nb0.714 Ta0.714 Ti1 Zr0.929,BCC,OTHER,BCC,,,8.1,,C,1000,236,247,50,,,110,,,
39,Al0.4 Hf0.6 Nb1 Ta1 Ti1 Zr1,BCC,OTHER,BCC,140,,9.1,500,C,25,1841,2269,10,,,107,,,
39,Al0.4 Hf0.6 Nb1 Ta1 Ti1 Zr1,BCC,OTHER,BCC,,,9.1,,C,800,796,834,50,,,107,,,
39,Al0.4 Hf0.6 Nb1 Ta1 Ti1 Zr1,BCC,OTHER,BCC,,,9.1,,C,1000,298,455,50,,,107,,,
39,Al0.333 Nb0.667 Ta0.533 Ti1 V0.133 Zr0.667,BCC,OTHER,BCC,100,,7.6,530,C,25,2035,2105,5,,,109,,,
39,Al0.333 Nb0.667 Ta0.533 Ti1 V0.133 Zr0.667,BCC,OTHER,BCC,,,7.6,,C,800,796,851,50,,,109,,,