IDENTIFIER: Reference ID,FORMULA,PROPERTY: Microstructure,PROPERTY: Processing method,PROPERTY: BCC/FCC/other,PROPERTY: grain size ($\mu$m),PROPERTY: Exp. Density (g/cm$^3$),PROPERTY: Calculated Density (g/cm$^3$),PROPERTY: HV,PROPERTY: Type of test,PROPERTY: Test temperature ($^\circ$C),PROPERTY: YS (MPa),PROPERTY: UTS (MPa),PROPERTY: Elongation (%),PROPERTY: Elongation plastic (%),PROPERTY: Exp. Young modulus (GPa),PROPERTY: Calculated Young modulus (GPa),PROPERTY: O content (wppm),PROPERTY: N content (wppm),PROPERTY: C content (wppm)
77,Al0.25 Nb1 Ta1 Ti1 Zr1,BCC+B2,OTHER,other,,,8.6,,C,1000,366,408,,,,,,,
77,Al0.25 Nb1 Ta1 Ti1 Zr1,BCC+B2,OTHER,other,,,8.6,,C,25,1745,1830,,,,,,,
77,Al0.5 Mo0.5 Nb1 Ta0.5 Ti1 Zr1,BCC+B2,OTHER,other,,,7.6,,C,1000,579,646,,,,,,,
77,Al0.5 Mo0.5 Nb1 Ta0.5 Ti1 Zr1,BCC+B2,OTHER,other,,,7.6,,C,25,2350,2460,,,,,,,
77,Al1 Mo0.5 Nb1 Ta0.5 Ti1 Zr1,BCC+B2,OTHER,other,,,7.1,,C,25,2197,2370,,,,,,,
77,Al1 Mo0.5 Nb1 Ta0.5 Ti1 Zr0.5,B2,OTHER,other,,,7.2,,C,1000,935,1019,,,,,,,
77,Al1 Mo0.5 Nb1 Ta0.5 Ti1 Zr0.5,B2,OTHER,other,,,7.2,,C,25,,1320,,,,,,,
77,Al1 Nb1 Ta0.5 Ti1 Zr0.5,B2,OTHER,other,,,6.9,,C,1000,535,542,,,,,,,
77,Al1 Nb1 Ta0.5 Ti1 Zr0.5,B2,OTHER,other,,,6.9,,C,25,1352,1357,,,,,,,
78,Hf1 Nb1 Si0.5 Ti1 V1 Zr1,BCC+Laves+Sec.,ANNEAL,other,,,7.5,,C,400,1273,1335,14.5,,,,,,
78,Hf1 Nb1 Si0.5 Ti1 V1 Zr1,BCC+Laves+Sec.,ANNEAL,other,,,7.5,,C,600,597,651,50,,,,,,
78,Hf1 Nb1 Si0.5 Ti1 V1 Zr1,BCC+Laves+Sec.,ANNEAL,other,,,7.5,,C,800,102,107,50,,,,,,
78,Hf1 Nb1 Si0.5 Ti1 V1 Zr1,BCC+Laves+Sec.,ANNEAL,other,,,7.5,,C,25,1483,1611,9.5,,,,,,
78,Hf1 Nb1 Si0.5 Ti1 V1 Zr1,BCC+Laves+Sec.,CAST,other,,,7.5,,C,600,920,1252,50,,,,,,
78,Hf1 Nb1 Si0.5 Ti1 V1 Zr1,BCC+Laves+Sec.,CAST,other,,,7.5,,C,800,371,427,50,,,,,,
78,Hf1 Nb1 Si0.5 Ti1 V1 Zr1,BCC+Laves+Sec.,CAST,other,,,7.5,,C,25,1540,1643,16.8,,,,,,
79,Hf1 Nb1 Ta1 Ti1 Zr1,BCC,OTHER,BCC,0.05,,9.9,420,T,25,1900,,7.9,,,107,,,
79,Hf1 Nb1 Ta1 Ti1 Zr1,BCC+HCP,OTHER,other,0.05,,9.9,530,T,25,1520,,1.7,,,,,,
79,Hf1 Nb1 Ta1 Ti1 Zr1,BCC+BCC+HCP,OTHER,other,0.1,,9.9,340,T,25,795,,5,,,,,,
79,Hf1 Nb1 Ta1 Ti1 Zr1,BCC,WROUGHT,BCC,100,,9.9,309,T,25,830,840,9.2,,,107,,,
80,Hf1 Nb1 Ta1 Ti1 Zr1,BCC,WROUGHT,BCC,,,9.9,366,T,25,1202,1295,4.7,,,107,,,
80,Hf1 Nb1 Ta1 Ti1 Zr1,BCC+BCC,WROUGHT,other,,,9.9,,T,25,1303,1334,,,,,,,
80,Hf1 Nb1 Ta1 Ti1 Zr1,BCC,WROUGHT,BCC,,,9.9,351,T,25,1145,1262,9.7,,,107,,,
81,Hf1 Nb1 Ta1 Ti1 Zr1,BCC,WROUGHT,BCC,,,9.9,,T,25,958,974,,,,107,,,
81,Hf1 Nb1 Ta1 Ti1 Zr1,BCC,WROUGHT,BCC,,,9.9,,T,25,944,959,,,,107,,,
81,Hf1 Nb1 Ta1 Ti1 Zr1,BCC,WROUGHT,BCC,,,9.9,,T,25,940,953,,,,107,,,
82,Hf1 Nb1 Ta1 Ti1 Zr1,BCC,WROUGHT,BCC,,,9.9,,T,25,940,1080,,,,107,,,
83,Hf1 Nb1 Ta1 Ti1 Zr1,BCC,CAST,BCC,,,9.9,,C,25,905,,,,,107,,,
84,Hf1 Nb1 Ta1 Ti1 Zr1,BCC,CAST,BCC,,,9.9,,C,25,890,,,,,107,,,
85,Hf1 Nb1 Ta1 Ti1 Zr1,BCC,CAST,BCC,,,9.9,,T,25,828,862,,,,107,,,
85,Hf1 Nb1 Ta1 Ti1 Zr1,BCC,CAST,BCC,,,9.9,,T,25,827,856,,,,107,,,
85,Hf1 Nb1 Ta1 Ti1 Zr1,BCC,CAST,BCC,,,9.9,,T,25,820,869,,,,107,,,
85,Hf1 Nb1 Ta1 Ti1 Zr1,BCC,CAST,BCC,,,9.9,,T,25,803,810,,,,107,,,
86,Al0.2 Mo1 Ta1 Ti1 V1,BCC,CAST,BCC,,,9.3,,C,25,1021,1249,,,,183,,,
86,Al0.6 Mo1 Ta1 Ti1 V1,BCC,CAST,BCC,,,8.7,,C,25,962,1033,,,,173,,,
86,Al1 Mo1 Ta1 Ti1 V1,BCC,CAST,BCC,,,8.2,,C,25,,735,,,,165,,,
86,Mo1 Ta1 Ti1 V1,BCC,CAST,BCC,,,9.6,,C,25,1221,1454,,,,189,,,
87,Hf1 Nb1 Ta1 Zr1,BCC+HCP,ANNEAL,other,,,11.1,571,C,25,2310,,0.3,,,,,,
87,Hf1 Nb1 Ta1 Zr1,BCC+HCP,ANNEAL,other,,,11.1,536,C,25,2100,2200,3.5,,,,,,
87,Hf1 Nb1 Ta1 Zr1,BCC+HCP,ANNEAL,other,,,11.1,,C,25,2020,2030,1.7,,,,,,
87,Hf1 Nb1 Ta1 Zr1,BCC+HCP,ANNEAL,other,,,11.1,550,C,25,1950,2010,2.2,,,,,,
87,Hf1 Nb1 Ta1 Zr1,BCC,CAST,BCC,,,11.1,365,C,25,1315,1800,21.6,,,105,,,
88,Hf1 Ta0.4 Ti1 Zr1,BCC+HCP,CAST,other,,,9.2,,T,25,400,1100,,,,,,,
88,Hf1 Ta0.5 Ti1 Zr1,BCC+HCP,CAST,other,,,9.4,,T,25,700,1100,,,,,,,
88,Hf1 Ta0.6 Ti1 Zr1,BCC+HCP,CAST,other,,,9.6,,T,25,800,1100,,,,,,,
88,Hf1 Ta1 Ti1 Zr1,BCC,CAST,BCC,,,10.2,,T,25,1500,1500,,,,107,,,
89,Mo1 Nb1 Ta1 Ti0.25 W1,BCC,CAST,BCC,,,13.1,478.3,C,25,1109,1197,,,,242,,,
89,Mo1 Nb1 Ta1 Ti0.5 W1,BCC,CAST,BCC,,,12.6,481.2,C,25,1211,1578,,,,234,,,
89,Mo1 Nb1 Ta1 Ti0.75 W1,BCC,CAST,BCC,,,12.2,495.6,C,25,1304,1593,,,,228,,,
89,Mo1 Nb1 Ta1 Ti1 W1,BCC,CAST,BCC,,,11.8,507.5,C,25,1455,1910,,,,222,,,
89,Mo1 Nb1 Ta1 W1,BCC,CAST,BCC,,,13.7,,C,25,996,1148,,,,250,,,
90,Mo1 Nb1 Ta1 Ti1 V1,BCC,CAST,BCC,,,9.4,,C,25,1400,2450,,,,171,,,
91,Mo1 Nb1 Ta1 Ti1 V1 W1,BCC,CAST,BCC,,,11,,C,600,973,1590,,,,209,,,
91,Mo1 Nb1 Ta1 Ti1 V1 W1,BCC,CAST,BCC,,,11,,C,800,791.3,1180,,,,209,,,
91,Mo1 Nb1 Ta1 Ti1 V1 W1,BCC,CAST,BCC,,,11,,C,1000,752.8,1105,,,,209,,,
91,Mo1 Nb1 Ta1 Ti1 V1 W1,BCC,CAST,BCC,,,11,,C,1200,659,696,,,,209,,,
91,Mo1 Nb1 Ta1 Ti1 V1 W1,BCC,CAST,BCC,,,11,,C,25,1515,2135,,,,209,,,
91,Mo1 Nb1 Ta1 Ti1 W1,BCC,CAST,BCC,,,11.8,,C,600,689,1681,,,,222,,,
91,Mo1 Nb1 Ta1 Ti1 W1,BCC,CAST,BCC,,,11.8,,C,800,674,1618,,,,222,,,
91,Mo1 Nb1 Ta1 Ti1 W1,BCC,CAST,BCC,,,11.8,,C,1000,620,1426,,,,222,,,
91,Mo1 Nb1 Ta1 Ti1 W1,BCC,CAST,BCC,,,11.8,,C,1200,586,814,,,,222,,,
91,Mo1 Nb1 Ta1 Ti1 W1,BCC,CAST,BCC,,,11.8,,C,25,1343,2005,,,,222,,,
92,Mo1 Nb1 Ta1 Ti1 Zr1,BCC+BCC,CAST,other,,,9.1,,C,25,1390,,,,,,,,
93,Mo1 Nb1 Ta1 Ti1 Zr1,BCC+BCC,ANNEAL,other,,,9.1,,C,25,1100,1200,,,,,,,
93,Mo1 Nb1 Ta1 Ti1 Zr1,BCC+BCC,CAST,other,,,9.1,,C,25,1375,1450,,,,,,,
94,Mo1 Nb1 Ta1 V1 W1,BCC,POWDER,BCC,,,12.4,,C,25,2612,3472,,,,229,,,
95,Nb1 Ta1 Ti1 V1,BCC,CAST,BCC,,,9.2,,C,25,965,,,,,134,,,
95,Nb1 Ta1 Ti1 V1 W1,BCC,CAST,BCC,,,11.1,,C,25,1420,1800,20,,,187,,,
95,Nb1 Ta1 V1 W1,BCC,CAST,BCC,,,12.9,,C,25,1530,1700,12,,,206,,,
96,Al0.25 Cr0.5 Nb0.5 Ti1 V0.25,BCC+Laves,ANNEAL,other,,,5.8,,C,600,930,,,,,,,,
96,Al0.25 Cr0.5 Nb0.5 Ti1 V0.25,BCC+Laves,ANNEAL,other,,,5.8,,C,800,445,,,,,,,,
96,Al0.25 Cr0.5 Nb0.5 Ti1 V0.25,BCC+Laves,ANNEAL,other,,,5.8,,C,1000,90,,,,,,,,
96,Al0.25 Cr0.5 Nb0.5 Ti1 V0.25,BCC+Laves,ANNEAL,other,,,5.8,,C,25,1340,1700,,,,,,,
96,Al0.25 Cr0.5 Nb0.5 Ti1 V0.25,BCC,CAST,BCC,,,5.8,,C,25,1240,,,,,134,,,
97,Al1 Cr0.5 Nb1 Ti1 V1,BCC,ANNEAL,BCC,,,5.6,,C,600,1005,1045,,,,119,,,
97,Al1 Cr0.5 Nb1 Ti1 V1,BCC,ANNEAL,BCC,,,5.6,,C,800,640,685,,,,119,,,
97,Al1 Cr0.5 Nb1 Ti1 V1,BCC,ANNEAL,BCC,,,5.6,,C,1000,40,80,,,,119,,,
97,Al1 Cr0.5 Nb1 Ti1 V1,BCC,ANNEAL,BCC,,,5.6,,C,25,1300,1430,,,,119,,,
97,Al0.667 Cr1 Nb0.667 Ti0.667 V0.667,BCC+Laves,ANNEAL,other,,,5.9,,C,600,1370,1480,,,,,,,
97,Al0.667 Cr1 Nb0.667 Ti0.667 V0.667,BCC+Laves,ANNEAL,other,,,5.9,,C,800,970,1045,,,,,,,
97,Al0.667 Cr1 Nb0.667 Ti0.667 V0.667,BCC+Laves,ANNEAL,other,,,5.9,,C,1000,75,105,,,,,,,
97,Al0.667 Cr1 Nb0.667 Ti0.667 V0.667,BCC+Laves,ANNEAL,other,,,5.9,,C,25,1700,1700,,,,,,,
97,Al1 Cr1 Nb1 Ti1 V1,BCC+Laves,ANNEAL,other,,,5.8,,C,600,1015,1060,,,,,,,
97,Al1 Cr1 Nb1 Ti1 V1,BCC+Laves,ANNEAL,other,,,5.8,,C,800,860,895,,,,,,,
97,Al1 Cr1 Nb1 Ti1 V1,BCC+Laves,ANNEAL,other,,,5.8,,C,1000,65,95,,,,,,,
97,Al1 Cr1 Nb1 Ti1 V1,BCC+Laves,ANNEAL,other,,,5.8,,C,25,1550,1570,,,,,,,
97,Al1 Nb1 Ti1 V1,BCC,ANNEAL,BCC,,,5.5,,C,600,780,1005,,,,104,,,
97,Al1 Nb1 Ti1 V1,BCC,ANNEAL,BCC,,,5.5,,C,800,560,700,,,,104,,,
97,Al1 Nb1 Ti1 V1,BCC,ANNEAL,BCC,,,5.5,,C,1000,110,,,,,104,,,
97,Al1 Nb1 Ti1 V1,BCC,ANNEAL,BCC,,,5.5,,C,25,1000,1280,,,,104,,,
140,Al0.3 Co1 Cr1 Fe1 Ni1,FCC+B2+Sec.,WROUGHT,other,0.71,,7.6,,T,25,900,1074,25,,,,,,
151,Cr0.5 Fe1 Mn0.625 Ni0.375,FCC+BCC,CAST,other,75,,7.8,,C,25,219,,,,,,,,
151,Al0.05 Cr0.5 Fe1 Mn0.625 Ni0.375,FCC+BCC,CAST,other,,,7.6,,C,25,354,,,,,,,,
151,Al0.15 Cr0.5 Fe1 Mn0.625 Ni0.375,FCC+BCC,CAST,other,,,7.4,,C,25,550,,,,,,,,
151,Al0.25 Cr0.5 Fe1 Mn0.625 Ni0.375,B2+BCC,CAST,other,175,,7.2,,C,25,994,,,,,,,,
151,Al0.35 Cr0.5 Fe1 Mn0.625 Ni0.375,B2+BCC,CAST,other,175,,6.9,,C,25,942,,,,,,,,
151,Cr0.5 Fe1 Mn0.625 Ni0.375,FCC+BCC,CAST,other,,,7.8,,C,400,132,,,,,,,,
151,Al0.05 Cr0.5 Fe1 Mn0.625 Ni0.375,FCC+BCC,CAST,other,,,7.6,,C,400,260,,,,,,,,
151,Al0.15 Cr0.5 Fe1 Mn0.625 Ni0.375,FCC+BCC,CAST,other,,,7.4,,C,400,469,,,,,,,,
151,Al0.25 Cr0.5 Fe1 Mn0.625 Ni0.375,B2+BCC,CAST,other,,,7.2,,C,400,943,,,,,,,,
151,Al0.35 Cr0.5 Fe1 Mn0.625 Ni0.375,B2+BCC,CAST,other,,,6.9,,C,400,833,,,,,,,,
151,Cr0.5 Fe1 Mn0.625 Ni0.375,FCC+BCC,CAST,other,,,7.8,,C,600,115,,,,,,,,
151,Al0.05 Cr0.5 Fe1 Mn0.625 Ni0.375,FCC+BCC,CAST,other,,,7.6,,C,600,155,,,,,,,,
151,Al0.15 Cr0.5 Fe1 Mn0.625 Ni0.375,FCC+BCC,CAST,other,,,7.4,,C,600,272,,,,,,,,
151,Al0.25 Cr0.5 Fe1 Mn0.625 Ni0.375,B2+BCC,CAST,other,,,7.2,,C,600,359,,,,,,,,
151,Al0.35 Cr0.5 Fe1 Mn0.625 Ni0.375,B2+BCC,CAST,other,,,6.9,,C,600,326,,,,,,,,
198,Co1 Cr1 Fe1 Mn1 Ni1,FCC,WROUGHT,FCC,4.4,,8,,T,25,370,670,56,,,220,,,
174,Co0.2 Cr0.2 Fe1 Mn0.6,FCC+HCP,ANNEAL,other,45,,7.8,,T,25,250,730,50,,,,,,
174,Co0.2 Cr0.2 Fe1 Mn0.6,FCC+HCP,WROUGHT,other,4.5,,7.8,,T,25,330,870,75,,,,,,
174,Co0.2 Cr0.2 Fe1 Mn0.6,FCC+HCP,WROUGHT,other,6,,7.8,,T,25,280,800,65,,,,,,
174,Co0.2 Cr0.2 Fe1 Mn0.6,FCC+HCP,WROUGHT,other,15,,7.8,,T,25,350,830,63,,,,,,
176,Co0.2 Cr0.2 Fe1 Mn0.6,FCC+HCP,WROUGHT,other,6.5,,7.8,,T,25,298,1400,45,,,,,,
176,Co0.2 Cr0.2 Fe1 Mn0.6,FCC+HCP,WROUGHT,other,5.2,,7.8,,T,25,400,1200,42,,,,,,
183,Al0.304 Co1 Cr1 Fe1 Ni1,FCC+B2,,other,0.7,,7.6,,T,25,860,1050,48,,,,,,
183,Al0.304 Co1 Cr1 Fe1 Ni1,FCC+B2,,other,2.7,,7.6,,T,25,690,930,51,,,,,,
183,Al0.304 Co1 Cr1 Fe1 Ni1,FCC+B2,,other,3.8,,7.6,,T,25,550,800,64,,,,,,
183,Al0.304 Co1 Cr1 Fe1 Ni1,FCC,,FCC,53,,7.6,,T,25,260,620,87,,,210,,,
183,Al0.304 Co1 Cr1 Fe1 Ni1,FCC+BCC,WROUGHT,other,,,7.6,,,,,,,,,,,,
179,Al0.304 Co1 Cr1 Fe1 Ni1,FCC,WROUGHT,FCC,,,7.6,,,,,,,,,210,,,
179,Al0.304 Co1 Cr1 Fe1 Ni1,FCC+L12,WROUGHT,other,,,7.6,,,,,,,,,,,,
178,Al0.304 Co1 Cr1 Fe1 Ni1,FCC,WROUGHT,FCC,144,,7.6,,T,25,159,410,65,,,210,,,
178,Al0.304 Co1 Cr1 Fe1 Ni1,FCC+B2,WROUGHT,other,144,,7.6,,T,25,215,520,43,,,,,,
178,Al0.304 Co1 Cr1 Fe1 Ni1,FCC+L12,WROUGHT,other,144,,7.6,,T,25,285,540,55,,,,,,
178,Al0.304 Co1 Cr1 Fe1 Ni1,FCC,WROUGHT,FCC,23,,7.6,,T,25,263,589,60,,,210,,,
178,Al0.304 Co1 Cr1 Fe1 Ni1,FCC+L12+B2,WROUGHT,other,23,,7.6,,T,25,490,840,45,,,,,,
184,Al0.304 Co1 Cr1 Fe1 Ni1,FCC+BCC,ANNEAL,other,,,7.6,,,,,,,,,,,,
185,Al0.304 Co1 Cr1 Fe1 Ni1,FCC+L12,CAST,other,,,7.6,,T,25,175,335,58,,,,,,
185,Al0.304 Co1 Cr1 Fe1 Ni1,FCC+L12,ANNEAL,other,,,7.6,,T,25,305,525,44,,,,,,
185,Al0.304 Co1 Cr1 Fe1 Ni1,FCC+B2,ANNEAL,other,,,7.6,,T,25,280,570,44,,,,,,
186,Al0.304 Co1 Cr1 Fe1 Ni1,FCC,ANNEAL,FCC,,,7.6,,,,,,,,,210,,,
187,Al0.304 Co1 Cr1 Fe1 Ni1,FCC+B2,ANNEAL,other,,,7.6,,,,,,,,,,,,
190,Al1 Co1 Cr1 Fe1 Ni1,BCC+B2,CAST,other,,,6.7,,T,700,395,400,1,,,,,,
188,Al1 Co1 Cr1 Fe1 Ni1,BCC+B2,CAST,other,,,6.7,,C,25,1380,,10,,,,,,
188,Al1 Co1 Cr1 Fe1 Ni1,BCC+B2+FCC+Sec.,ANNEAL,other,,,6.7,,C,25,1430,,1.6,,,,,,
188,Al1 Co1 Cr1 Fe1 Ni1,BCC+B2+FCC,ANNEAL,other,,,6.7,,C,25,1690,,2.7,,,,,,
188,Al1 Co1 Cr1 Fe1 Ni1,BCC+B2+FCC,ANNEAL,other,,,6.7,,C,25,1220,,13,,,,,,
188,Al1 Co1 Cr1 Fe1 Ni1,BCC+B2+FCC,ANNEAL,other,,,6.7,,C,25,1450,,20,,,,,,
189,Al1 Co1 Cr1 Fe1 Ni1,FCC+BCC,ANNEAL,other,,,6.7,,T,25,900,935,0.8,,,,,,
191,Al0.515 Cr0.515 Fe1 Ni1,FCC+BCC+B2,CAST,other,,,6.9,,T,25,796,1437,15.7,,,,,,
192,Al0.511 Co0.511 Cr0.511 Fe0.511 Ni1,L12+B2,,other,,,7,,T,25,545,1030,16.5,,,,,,
192,Al0.465 Co0.465 Cr0.465 Fe0.465 Ni1,L12+B2,,other,,,7.1,,T,25,545,1050,16.5,,,,,,
192,Al0.451 Co0.451 Cr0.451 Fe0.451 Ni1,L12+B2,,other,,,7.1,,T,25,545,1110,20,,,,,,
192,Al0.511 Co0.511 Cr0.511 Fe0.511 Ni1,,,other,,,7,,T,-70,580,1034,10.5,,,,,,
192,Al0.465 Co0.465 Cr0.465 Fe0.465 Ni1,,,other,,,7.1,,T,-70,595,1168,15.8,,,,,,
192,Al0.451 Co0.451 Cr0.451 Fe0.451 Ni1,,,other,,,7.1,,T,-70,570,1143,18,,,,,,
192,Al0.511 Co0.511 Cr0.511 Fe0.511 Ni1,,,other,,,7,,T,-192,700,1000,4,,,,,,
192,Al0.465 Co0.465 Cr0.465 Fe0.465 Ni1,,,other,,,7.1,,T,-192,700,1000,7,,,,,,
192,Al0.451 Co0.451 Cr0.451 Fe0.451 Ni1,,,other,,,7.1,,T,-192,700,1000,9,,,,,,
195,Al0.343 Co0.514 Cr0.514 Fe1 Ni0.514,BCC+B2,CAST,other,,,7.2,,T,25,866,1223,7.9,,,,,,
195,Al0.343 Co0.514 Cr0.514 Fe1 Ni0.514,,CAST,other,,,7.2,,T,650,400,468,6.3,,,,,,
195,Al0.343 Co0.514 Cr0.514 Fe1 Ni0.514,,CAST,other,,,7.2,,T,700,220,340,5.4,,,,,,
195,Al0.343 Co0.514 Cr0.514 Fe1 Ni0.514,,CAST,other,,,7.2,,C,25,1166,,30.2,,,,,,
199,Co1 Cr0.429 Fe0.571 Mo0.286 Ni0.571,FCC,CAST,FCC,,,8.6,,T,25,350,720,21.9,,,234,,,
199,Co1 Cr0.429 Fe0.571 Mo0.286 Ni0.571,FCC+Sec.,WROUGHT,other,,,8.6,,T,25,1311,1410,12.1,,,,,,
199,Co1 Cr0.429 Fe0.571 Mo0.286 Ni0.571,FCC+Sec.,WROUGHT,other,,,8.6,,T,25,1212,1360,14.9,,,,,,
199,Co1 Cr0.429 Fe0.571 Mo0.286 Ni0.571,FCC+Sec.,WROUGHT,other,,,8.6,,T,25,1028,1249,18.3,,,,,,
199,Co1 Cr0.429 Fe0.571 Mo0.286 Ni0.571,FCC+Sec.,WROUGHT,other,,,8.6,,T,25,879,1194,25.4,,,,,,
199,Co1 Cr0.429 Fe0.571 Mo0.286 Ni0.571,FCC+Sec.,WROUGHT,other,,,8.6,,T,25,799,1127,28.2,,,,,,
199,Co1 Cr0.429 Fe0.571 Mo0.286 Ni0.571,FCC,WROUGHT,FCC,,,8.6,,T,25,350,918,62.4,,,234,,,
197,Co1 Cr1 Fe1 Ni1,FCC,CAST,FCC,,,8.2,,T,25,155,472.4,58.9,,,226,,,
197,Co1 Cr1 Fe1 Mo0.083 Ni1,,CAST,other,,,8.2,,T,25,198.8,479,51.1,,,,,,
197,Co1 Cr1 Fe1 Mo0.208 Ni1,,CAST,other,,,8.3,,T,25,254.7,589.6,55.1,,,,,,
197,Co1 Cr1 Fe1 Mo0.304 Ni1,FCC+Sec.,CAST,other,,,8.4,,T,25,305.3,709.7,49.3,,,,,,
197,Co1 Cr1 Fe1 Mo0.304 Ni1,FCC+Sec.,WROUGHT,other,3,,8.4,,T,25,815.5,1186.5,18.9,,,,,,
197,Co1 Cr1 Fe1 Mo0.304 Ni1,FCC+Sec.,WROUGHT,other,3.1,,8.4,,T,25,646.7,1042,32.5,,,,,,
197,Co1 Cr1 Fe1 Mo0.304 Ni1,FCC+Sec.,WROUGHT,other,1.6,,8.4,,T,25,683.7,1066.6,30.4,,,,,,
177,Co1 Cr1 Fe1 Mn1 Ni1,FCC,WROUGHT,FCC,13,,8,,T,25,243,558,50,,,220,,,
177,C0.02 Co1 Cr1 Fe1 Mn1 Ni1,FCC+Sec.,WROUGHT,other,8,,8,,T,25,446,723,15,,,,,,
177,Co1 Cr1 Fe1 Mn1 Ni1,FCC,WROUGHT,FCC,7,,8,,T,25,249,621,41,,,220,,,
177,C0.02 Co1 Cr1 Fe1 Mn1 Ni1,FCC+Sec.,WROUGHT,other,4,,8,,T,25,581,857,28,,,,,,
196,Co1 Cr1 Fe1 Ni1,FCC,ANNEAL,FCC,,,8.2,,T,25,190,453,70,,,226,,,
196,Al0.167 Co1 Cr1 Fe1 Ni1 Ti0.083,FCC,ANNEAL,FCC,289.7,,7.8,,T,25,210,503,70,,,214,,,
196,Al0.167 Co1 Cr1 Fe1 Ni1 Ti0.083,FCC+L12+Sec.,WROUGHT,other,15.7,,7.8,,T,25,645,1094,39,,,,,,
196,Al0.167 Co1 Cr1 Fe1 Ni1 Ti0.083,FCC+L12+Sec.,WROUGHT,other,2.8,,7.8,,T,25,1005,1273,17,,,,,,
201,Al0.242 Co0.515 Cr0.515 Cu0.242 Fe0.515 Ni1,,ANNEAL,other,,,7.7,168,,,,,,,,,,,
201,Al0.242 Co0.515 Cr0.515 Cu0.242 Fe0.515 Ni1,,ANNEAL,other,,,7.7,328,,,,,,,,,,,
167,Al0.242 Co0.515 Cr0.515 Cu0.242 Fe0.515 Ni1,,ANNEAL,other,,,7.7,206,,,,,,,,,,,
201,Al0.229 Co0.486 Cr0.4 Cu0.229 Fe0.486 Mo0.003 Ni1 Ti0.029 W0.003,,CAST,other,,,7.7,231,,,,,,,,,,,
201,Al0.229 Co0.486 Cr0.4 Cu0.229 Fe0.486 Mo0.003 Ni1 Ti0.029 W0.003,,ANNEAL,other,,,7.7,178,,,,,,,,,,,
201,Al0.229 Co0.486 Cr0.4 Cu0.229 Fe0.486 Mo0.003 Ni1 Ti0.029 W0.003,,ANNEAL,other,,,7.7,343,,,,,,,,,,,
167,Al0.229 Co0.486 Cr0.4 Cu0.229 Fe0.486 Mo0.003 Ni1 Ti0.029 W0.003,,ANNEAL,other,,,7.7,171,,,,,,,,,,,
175,Al0.278 Co0.694 Cr0.222 Fe0.417 Ni1 Ti0.167,,CAST,other,,,7.4,343,,,,,,,,,,,
175,Al0.278 Co0.694 Cr0.222 Fe0.417 Ni1 Ti0.167,,ANNEAL,other,,,7.4,341,,,,,,,,,,,
175,Al0.278 Co0.694 Cr0.222 Fe0.417 Ni1 Ti0.167,FCC+L12+Sec.,ANNEAL,other,,,7.4,345,T,25,568,786,12,,,,,,
175,Al0.278 Co0.694 Cr0.222 Fe0.417 Ni1 Ti0.167,FCC+L12+Sec.,ANNEAL,other,,,7.4,345,T,25,596,1039,20,,,,,,
175,Al0.278 Co0.694 Cr0.222 Fe0.417 Ni1 Ti0.167,FCC+L12+Sec.,ANNEAL,other,,,7.4,345,T,700,487,702,18,,,,,,
175,Al0.278 Co0.694 Cr0.222 Fe0.417 Ni1 Ti0.167,FCC+L12+Sec.,ANNEAL,other,,,7.4,345,T,700,486,624,11,,,,,,
193,Al0.885 Cr1 Fe1 Ni1,BCC+B2,CAST,other,,,6.4,,C,25,770,,37.1,,,,,,
193,Al1 Cr1 Fe1 Ni1,BCC+B2,CAST,other,,,6.3,,C,25,843.2,,34.6,,,,,,
193,Al1 Cr0.889 Fe0.889 Ni0.889,BCC+B2,CAST,other,,,6.1,,C,25,1044,,27.1,,,,,,
193,Al1 Cr0.828 Fe0.828 Ni0.828,BCC+B2,CAST,other,,,6,,C,25,906.8,,31.4,,,,,,
193,Al1 Cr0.767 Fe0.767 Ni0.767,BCC+B2,CAST,other,,,5.9,,C,25,1122.8,,24.7,,,,,,
191,Al0.5 Cr0.5 Fe1 Ni1,BCC+B2,CAST,other,,,6.9,,C,25,,,17,,,,,,
168,Al1 Co1 Cr1 Fe1 Ni1,BCC+B2,CAST,other,,,6.7,,C,25,,,22.7,,,,,,
182,Al0.545 Cr0.545 Fe0.515 Ni1 Ti0.273,BCC+B2+L12,CAST,other,,,6.4,,C,25,,,16.3,,,,,,
182,Al0.545 Cr0.545 Fe0.515 Ni1 Ti0.273,BCC+B2+L12,ANNEAL,other,,,6.4,,C,25,,,19.8,,,,,,
181,Cr1 Fe1 Ni1 V0.5 W1,FCC+BCC+Sec.,CAST,other,,,10.9,,C,25,,,7.3,,,,,,
169,Al0.515 Cr0.515 Cu0.515 Fe0.515 Ni1,FCC+BCC+B2,CAST,other,,,7.1,,C,25,,,30,,,,,,
202,Co1 Cr1 Fe1 Mn1 Ni1,FCC,ANNEAL,FCC,,,8,,C,25,230,,75,,,220,,,
202,Co1 Cr1 Fe1 Mn1 Ni1 V0.263,FCC+Sec.,ANNEAL,other,,,7.9,,C,25,200,,75,,,,,,
202,Co1 Cr1 Fe1 Mn1 Ni1 V0.5,FCC+Sec.,ANNEAL,other,,,7.8,,C,25,620,,75,,,,,,
202,Co1 Cr1 Fe1 Mn1 Ni1 V0.765,FCC+Sec.,ANNEAL,other,,,7.7,,C,25,780,,8,,,,,,
202,Co1 Cr1 Fe1 Mn1 Ni1 V1,FCC+Sec.,ANNEAL,other,,,7.7,,C,25,1700,,1,,,,,,
170,Al0.304 Co1 Cr1 Fe1 Ni1,FCC,CAST,FCC,,,7.6,,C,25,,,25,,,210,,,
171,Co1 Cr1 Fe1 Ni1,FCC,CAST,FCC,,,8.2,,C,25,,,83,,,226,,,
192,Al0.511 Co0.511 Cr0.511 Fe0.511 Ni1,FCC+B2,CAST,other,,,7,,T,25,545,1030,16.5,,,,,,
192,Al0.465 Co0.465 Cr0.465 Fe0.465 Ni1,FCC+B2,CAST,other,,,7.1,,T,25,545,1050,16.5,,,,,,
192,Al0.451 Co0.451 Cr0.451 Fe0.451 Ni1,FCC+B2,CAST,other,,,7.1,,T,25,545,1110,20,,,,,,
194,Al0.108 Co0.514 Cr0.514 Cu0.108 Fe0.514 Ni1,FCC,WROUGHT,FCC,,,8,,T,25,719,1048,30,,,209,,,
194,Al0.108 Co0.514 Cr0.514 Cu0.108 Fe0.514 Ni1,FCC+L12,WROUGHT,other,,,8,,T,25,460,732,32,,,,,,
200,Al0.242 Co0.515 Cr0.515 Cu0.242 Fe0.515 Ni1,Other,CAST,other,,,7.7,,T,25,357,459,9,,,,,,
200,Al0.242 Co0.515 Cr0.515 Cu0.242 Fe0.515 Ni1,Other,ANNEAL,other,,,7.7,,T,25,365,365,0.1,,,,,,
200,Al0.242 Co0.515 Cr0.515 Cu0.242 Fe0.515 Ni1,FCC+L12,ANNEAL,other,,,7.7,,T,25,215,489,39,,,,,,
172,Al0.5 Co1 Cr1 Cu1 Fe1 Ni1,Other,WROUGHT,other,,,7.6,,T,25,1284,1344,7.6,,,,,,
173,Al0.5 Co1 Cr1 Cu1 Fe1 Ni1,FCC,WROUGHT,FCC,,,7.6,,T,25,1290,1400,5,,,189,,,
173,Al0.5 Co1 Cr1 Cu1 Fe1 Ni1,Other,WROUGHT,other,,,7.6,,T,25,650,790,27,,,,,,
180,Al1 Co1 Cr1 Cu1 Fe1 Ni1,BCC+Sec.,CAST,other,,,7.1,,T,25,790,790,0.2,,,,,,
180,Al1 Co1 Cr1 Cu1 Fe1 Ni1,BCC+Sec.,WROUGHT,other,,,7.1,,T,25,1040,1170,1,,,,,,
190,Al1 Co1 Cr1 Fe1 Ni1,BCC+B2+FCC+Sec.,OTHER,other,,,6.7,,T,700,295,393,12,,,,,,
180,Al1 Co1 Cr1 Cu1 Fe1 Ni1,BCC+Sec.,CAST,other,,,7.1,,T,700,350,360,5,,,,,,
180,Al1 Co1 Cr1 Cu1 Fe1 Ni1,BCC+Sec.,WROUGHT,other,,,7.1,,T,700,63,91,63,,,,,,
173,Al0.5 Co1 Cr1 Cu1 Fe1 Ni1,FCC,WROUGHT,FCC,,,7.6,,T,700,180,185,5,,,189,,,
173,Al0.5 Co1 Cr1 Cu1 Fe1 Ni1,Other,WROUGHT,other,,,7.6,,T,700,160,180,12,,,,,,
214,Co1 Cr1 Fe1 Ni1 Ti0.2,FCC,WROUGHT,FCC,51,,7.9,,T,25,700,1240,36,,,218,,,
214,Co1 Cr1 Fe1 Ni1 Ti0.2,FCC,WROUGHT,FCC,,,7.9,,T,-196,860,1580,46,,,218,,,
222,Al0.1 Co1 Cr1 Fe1 Ni1,FCC,WROUGHT,FCC,20,,8,,T,25,1198,,1.5,,,220,,,
222,Al0.1 Co1 Cr1 Fe1 Ni1,FCC,WROUGHT,FCC,20,,8,,T,25,1403,,1.2,,,220,,,
222,Al0.1 Co1 Cr1 Fe1 Ni1,FCC,WROUGHT,FCC,20,,8,,T,25,711,928,30.3,,,220,,,
222,Al0.1 Co1 Cr1 Fe1 Ni1,FCC,WROUGHT,FCC,7,,8,,T,25,356,,42.4,,,220,,,
236,Co1 Cr1 Fe1 Mn1 Ni1,FCC,WROUGHT,FCC,0.5,,8,,T,25,1120,,1.1,,,220,,,
236,Co1 Cr1 Fe1 Mn1 Ni1,FCC,WROUGHT,FCC,,,8,,T,-196,1692,,10.3,,,220,,,
245,Al0.5 Cr0.5 Fe0.5 Ni1,FCC+BCC+B2,CAST,other,,,6.7,,T,25,774,1357,6.4,,,,,,
245,Al0.429 Cr0.476 Fe0.476 Ni1,FCC+BCC+B2,CAST,other,,,6.9,,T,25,610,1173,9.1,,,,,,
245,Al0.364 Cr0.455 Fe0.455 Ni1,FCC+BCC+B2,CAST,other,,,7,,T,25,479,956,12.7,,,,,,
245,Al0.304 Cr0.435 Fe0.435 Ni1,FCC+BCC+B2,CAST,other,,,7.2,,T,25,461,835,30,,,,,,
245,Al0.25 Cr0.417 Fe0.417 Ni1,FCC,CAST,FCC,,,7.3,,T,25,441,757,45,,,196,,,
98,Co1 Cr1 Ni1,FCC,WROUGHT,FCC,1.6,,8.3,468,T,25,1100,,23,,,231,,,
98,Co1 Cr1 Ni1,FCC,WROUGHT,FCC,2.3,,8.3,326,T,25,597,,53,,,231,,,
98,Co1 Cr1 Ni1,FCC,WROUGHT,FCC,24,,8.3,223,T,25,346,,76,,,231,,,
105,Al0.476 Co0.476 Cr0.476 Fe0.476 Ni1,FCC+B2,WROUGHT,other,,,7.1,,T,25,1263,,21.4,,,,,,
105,Al0.476 Co0.476 Cr0.476 Fe0.476 Ni1,FCC+B2,WROUGHT,other,,,7.1,,T,25,1154,,25,,,,,,
105,Al0.476 Co0.476 Cr0.476 Fe0.476 Ni1,FCC+B2,WROUGHT,other,,,7.1,,T,25,1490,,16,,,,,,
115,Co1 Cr1 Fe1 Mn1 Ni1,FCC,CAST,FCC,,,8,130.2,C,25,210,,57,,,220,,,
115,Co1 Cr1 Fe1 Mn1 Ni1,FCC,WROUGHT,FCC,,,8,394.1,C,25,1150,,6,,,220,,,
115,Co1 Cr1 Fe1 Mn1 Ni1,FCC,WROUGHT,FCC,,,8,430.7,C,25,1300,,0.7,,,220,,,
125,Nb1 Ta1 Ti1 V1,BCC,POWDER,BCC,24,,9.2,427.9,C,25,1108,,28.3,,,134,,,
125,Nb1 Ta1 Ti1 V1,BCC,POWDER,BCC,30,,9.2,444.3,C,25,1308,,27.9,,,134,,,
125,Nb1 Ta1 Ti1 V1,BCC,POWDER,BCC,38,,9.2,510.9,C,25,1373,,29.5,,,134,4800,,1900
135,Co1 Cr1 Fe1 Mn1 Ni1,FCC,WROUGHT,FCC,30,,8,,T,25,300,676,52,,,220,,,